 Entering Gaussian System, Link 0=g16
 Input=reactant0.gjf
 Output=reactant0.log
 Initial command:
 /public/home/xiaoyuy/gaussian/g16/l1.exe "/public/home/xiaoyuy/yxy/Gau-141163.inp" -scrdir="/public/home/xiaoyuy/yxy/"
 Entering Link 1 = /public/home/xiaoyuy/gaussian/g16/l1.exe PID=    141164.
  
 Copyright (c) 1988-2019, Gaussian, Inc.  All Rights Reserved.
  
 This is part of the Gaussian(R) 16 program.  It is based on
 the Gaussian(R) 09 system (copyright 2009, Gaussian, Inc.),
 the Gaussian(R) 03 system (copyright 2003, Gaussian, Inc.),
 the Gaussian(R) 98 system (copyright 1998, Gaussian, Inc.),
 the Gaussian(R) 94 system (copyright 1995, Gaussian, Inc.),
 the Gaussian 92(TM) system (copyright 1992, Gaussian, Inc.),
 the Gaussian 90(TM) system (copyright 1990, Gaussian, Inc.),
 the Gaussian 88(TM) system (copyright 1988, Gaussian, Inc.),
 the Gaussian 86(TM) system (copyright 1986, Carnegie Mellon
 University), and the Gaussian 82(TM) system (copyright 1983,
 Carnegie Mellon University). Gaussian is a federally registered
 trademark of Gaussian, Inc.
  
 This software contains proprietary and confidential information,
 including trade secrets, belonging to Gaussian, Inc.
  
 This software is provided under written license and may be
 used, copied, transmitted, or stored only in accord with that
 written license.
  
 The following legend is applicable only to US Government
 contracts under FAR:
  
                    RESTRICTED RIGHTS LEGEND
  
 Use, reproduction and disclosure by the US Government is
 subject to restrictions as set forth in subparagraphs (a)
 and (c) of the Commercial Computer Software - Restricted
 Rights clause in FAR 52.227-19.
  
 Gaussian, Inc.
 340 Quinnipiac St., Bldg. 40, Wallingford CT 06492
  
  
 ---------------------------------------------------------------
 Warning -- This program may not be used in any manner that
 competes with the business of Gaussian, Inc. or will provide
 assistance to any competitor of Gaussian, Inc.  The licensee
 of this program is prohibited from giving any competitor of
 Gaussian, Inc. access to this program.  By using this program,
 the user acknowledges that Gaussian, Inc. is engaged in the
 business of creating and licensing software in the field of
 computational chemistry and represents and warrants to the
 licensee that it is not a competitor of Gaussian, Inc. and that
 it will not use this program in any manner prohibited above.
 ---------------------------------------------------------------
  

 Cite this work as:
 Gaussian 16, Revision C.01,
 M. J. Frisch, G. W. Trucks, H. B. Schlegel, G. E. Scuseria, 
 M. A. Robb, J. R. Cheeseman, G. Scalmani, V. Barone, 
 G. A. Petersson, H. Nakatsuji, X. Li, M. Caricato, A. V. Marenich, 
 J. Bloino, B. G. Janesko, R. Gomperts, B. Mennucci, H. P. Hratchian, 
 J. V. Ortiz, A. F. Izmaylov, J. L. Sonnenberg, D. Williams-Young, 
 F. Ding, F. Lipparini, F. Egidi, J. Goings, B. Peng, A. Petrone, 
 T. Henderson, D. Ranasinghe, V. G. Zakrzewski, J. Gao, N. Rega, 
 G. Zheng, W. Liang, M. Hada, M. Ehara, K. Toyota, R. Fukuda, 
 J. Hasegawa, M. Ishida, T. Nakajima, Y. Honda, O. Kitao, H. Nakai, 
 T. Vreven, K. Throssell, J. A. Montgomery, Jr., J. E. Peralta, 
 F. Ogliaro, M. J. Bearpark, J. J. Heyd, E. N. Brothers, K. N. Kudin, 
 V. N. Staroverov, T. A. Keith, R. Kobayashi, J. Normand, 
 K. Raghavachari, A. P. Rendell, J. C. Burant, S. S. Iyengar, 
 J. Tomasi, M. Cossi, J. M. Millam, M. Klene, C. Adamo, R. Cammi, 
 J. W. Ochterski, R. L. Martin, K. Morokuma, O. Farkas, 
 J. B. Foresman, and D. J. Fox, Gaussian, Inc., Wallingford CT, 2019.
 
 ******************************************
 Gaussian 16:  ES64L-G16RevC.01  3-Jul-2019
                 4-May-2023 
 ******************************************
 %chk=reactant0.chk
 ------------------------------------------------------
 # opt freq b3lyp/6-31g(d,p) geom=connectivity em=gd3bj
 ------------------------------------------------------
 1/18=20,19=15,26=3,38=1,57=2/1,3;
 2/9=110,12=2,17=6,18=5,40=1/2;
 3/5=1,6=6,7=101,11=2,25=1,30=1,71=1,74=-5,124=41/1,2,3;
 4//1;
 5/5=2,38=5/2;
 6/7=2,8=2,9=2,10=2,28=1/1;
 7//1,2,3,16;
 1/18=20,19=15,26=3/3(2);
 2/9=110/2;
 99//99;
 2/9=110/2;
 3/5=1,6=6,7=101,11=2,25=1,30=1,71=1,74=-5,124=41/1,2,3;
 4/5=5,16=3,69=1/1;
 5/5=2,38=5/2;
 7//1,2,3,16;
 1/18=20,19=15,26=3/3(-5);
 2/9=110/2;
 6/7=2,8=2,9=2,10=2,19=2,28=1/1;
 99/9=1/99;
 -------------------
 Title Card Required
 -------------------
 Symbolic Z-matrix:
 Charge =  0 Multiplicity = 1
 C                    -3.40122   0.37678   0. 
 C                    -2.00606   0.37678   0. 
 C                    -1.30852   1.58453   0. 
 C                    -2.00618   2.79304  -0.0012 
 C                    -3.401     2.79296  -0.00168 
 C                    -4.0986    1.58476  -0.00068 
 H                    -3.95098  -0.57553   0.00045 
 H                    -1.45655  -0.57573   0.00132 
 H                    -1.45598   3.74519  -0.00126 
 H                    -3.95113   3.74525  -0.00263 
 H                    -5.19821   1.58494  -0.00086 
 C                     0.23148   1.58465   0.00089 
 O                     0.86561   1.58309  -1.08605 
 Cl                    1.10758   1.58695   1.52734 
 

 GradGradGradGradGradGradGradGradGradGradGradGradGradGradGradGradGradGrad
 Berny optimization.
 Initialization pass.
                           ----------------------------
                           !    Initial Parameters    !
                           ! (Angstroms and Degrees)  !
 --------------------------                            --------------------------
 ! Name  Definition              Value          Derivative Info.                !
 --------------------------------------------------------------------------------
 ! R1    R(1,2)                  1.3952         estimate D2E/DX2                !
 ! R2    R(1,6)                  1.3948         estimate D2E/DX2                !
 ! R3    R(1,7)                  1.0996         estimate D2E/DX2                !
 ! R4    R(2,3)                  1.3947         estimate D2E/DX2                !
 ! R5    R(2,8)                  1.0997         estimate D2E/DX2                !
 ! R6    R(3,4)                  1.3954         estimate D2E/DX2                !
 ! R7    R(3,12)                 1.54           estimate D2E/DX2                !
 ! R8    R(4,5)                  1.3948         estimate D2E/DX2                !
 ! R9    R(4,9)                  1.0997         estimate D2E/DX2                !
 ! R10   R(5,6)                  1.3951         estimate D2E/DX2                !
 ! R11   R(5,10)                 1.0998         estimate D2E/DX2                !
 ! R12   R(6,11)                 1.0996         estimate D2E/DX2                !
 ! R13   R(12,13)                1.2584         estimate D2E/DX2                !
 ! R14   R(12,14)                1.76           estimate D2E/DX2                !
 ! A1    A(2,1,6)              119.9985         estimate D2E/DX2                !
 ! A2    A(2,1,7)              119.9972         estimate D2E/DX2                !
 ! A3    A(6,1,7)              120.0043         estimate D2E/DX2                !
 ! A4    A(1,2,3)              120.0086         estimate D2E/DX2                !
 ! A5    A(1,2,8)              119.9808         estimate D2E/DX2                !
 ! A6    A(3,2,8)              120.0106         estimate D2E/DX2                !
 ! A7    A(2,3,4)              119.9942         estimate D2E/DX2                !
 ! A8    A(2,3,12)             120.0128         estimate D2E/DX2                !
 ! A9    A(4,3,12)             119.993          estimate D2E/DX2                !
 ! A10   A(3,4,5)              119.994          estimate D2E/DX2                !
 ! A11   A(3,4,9)              119.9811         estimate D2E/DX2                !
 ! A12   A(5,4,9)              120.0249         estimate D2E/DX2                !
 ! A13   A(4,5,6)              120.0047         estimate D2E/DX2                !
 ! A14   A(4,5,10)             120.0113         estimate D2E/DX2                !
 ! A15   A(6,5,10)             119.984          estimate D2E/DX2                !
 ! A16   A(1,6,5)              120.0            estimate D2E/DX2                !
 ! A17   A(1,6,11)             120.008          estimate D2E/DX2                !
 ! A18   A(5,6,11)             119.992          estimate D2E/DX2                !
 ! A19   A(3,12,13)            120.2269         estimate D2E/DX2                !
 ! A20   A(3,12,14)            119.8865         estimate D2E/DX2                !
 ! A21   A(13,12,14)           119.8865         estimate D2E/DX2                !
 ! D1    D(6,1,2,3)              0.0323         estimate D2E/DX2                !
 ! D2    D(6,1,2,8)            179.9532         estimate D2E/DX2                !
 ! D3    D(7,1,2,3)           -179.9729         estimate D2E/DX2                !
 ! D4    D(7,1,2,8)             -0.052          estimate D2E/DX2                !
 ! D5    D(2,1,6,5)              0.0149         estimate D2E/DX2                !
 ! D6    D(2,1,6,11)           179.9892         estimate D2E/DX2                !
 ! D7    D(7,1,6,5)           -179.9798         estimate D2E/DX2                !
 ! D8    D(7,1,6,11)            -0.0056         estimate D2E/DX2                !
 ! D9    D(1,2,3,4)             -0.0568         estimate D2E/DX2                !
 ! D10   D(1,2,3,12)           179.9619         estimate D2E/DX2                !
 ! D11   D(8,2,3,4)           -179.9777         estimate D2E/DX2                !
 ! D12   D(8,2,3,12)             0.041          estimate D2E/DX2                !
 ! D13   D(2,3,4,5)              0.0341         estimate D2E/DX2                !
 ! D14   D(2,3,4,9)           -179.9964         estimate D2E/DX2                !
 ! D15   D(12,3,4,5)          -179.9846         estimate D2E/DX2                !
 ! D16   D(12,3,4,9)            -0.0151         estimate D2E/DX2                !
 ! D17   D(2,3,12,13)           89.935          estimate D2E/DX2                !
 ! D18   D(2,3,12,14)          -90.065          estimate D2E/DX2                !
 ! D19   D(4,3,12,13)          -90.0463         estimate D2E/DX2                !
 ! D20   D(4,3,12,14)           89.9537         estimate D2E/DX2                !
 ! D21   D(3,4,5,6)              0.0131         estimate D2E/DX2                !
 ! D22   D(3,4,5,10)          -179.9995         estimate D2E/DX2                !
 ! D23   D(9,4,5,6)           -179.9563         estimate D2E/DX2                !
 ! D24   D(9,4,5,10)             0.0311         estimate D2E/DX2                !
 ! D25   D(4,5,6,1)             -0.0376         estimate D2E/DX2                !
 ! D26   D(4,5,6,11)           179.9881         estimate D2E/DX2                !
 ! D27   D(10,5,6,1)           179.975          estimate D2E/DX2                !
 ! D28   D(10,5,6,11)            0.0007         estimate D2E/DX2                !
 --------------------------------------------------------------------------------
 Trust Radius=3.00D-01 FncErr=1.00D-07 GrdErr=1.00D-06 EigMax=2.50D+02 EigMin=1.00D-04
 Number of steps in this run=     73 maximum allowed number of steps=    100.
 GradGradGradGradGradGradGradGradGradGradGradGradGradGradGradGradGradGrad

                          Input orientation:                          
 ---------------------------------------------------------------------
 Center     Atomic      Atomic             Coordinates (Angstroms)
 Number     Number       Type             X           Y           Z
 ---------------------------------------------------------------------
      1          6           0       -3.401222    0.376782    0.000000
      2          6           0       -2.006062    0.376782    0.000000
      3          6           0       -1.308524    1.584533    0.000000
      4          6           0       -2.006178    2.793042   -0.001199
      5          6           0       -3.401003    2.792964   -0.001678
      6          6           0       -4.098604    1.584758   -0.000682
      7          1           0       -3.950981   -0.575535    0.000450
      8          1           0       -1.456554   -0.575731    0.001315
      9          1           0       -1.455978    3.745185   -0.001258
     10          1           0       -3.951125    3.745245   -0.002631
     11          1           0       -5.198208    1.584941   -0.000862
     12          6           0        0.231476    1.584645    0.000888
     13          8           0        0.865614    1.583095   -1.086051
     14         17           0        1.107575    1.586949    1.527336
 ---------------------------------------------------------------------
                    Distance matrix (angstroms):
                    1          2          3          4          5
     1  C    0.000000
     2  C    1.395160   0.000000
     3  C    2.416205   1.394712   0.000000
     4  C    2.790065   2.416260   1.395427   0.000000
     5  C    2.416183   2.789946   2.416356   1.394825   0.000000
     6  C    1.394829   2.416183   2.790080   2.416236   1.395138
     7  H    1.099610   2.165553   3.412986   3.889675   3.413102
     8  H    2.165414   1.099655   2.165330   3.413316   3.889601
     9  H    3.889745   3.413024   2.165678   1.099680   2.165606
    10  H    3.413055   3.889707   3.413506   2.165528   1.099761
    11  H    2.165365   3.413128   3.889684   3.412999   2.165471
    12  C    3.828241   2.542737   1.540000   2.543093   3.828178
    13  O    4.565150   3.298670   2.430306   3.299707   4.565487
    14  Cl   4.911875   3.673145   2.858373   3.672402   4.911174
                    6          7          8          9         10
     6  C    0.000000
     7  H    2.165331   0.000000
     8  H    3.412938   2.494427   0.000000
     9  H    3.413344   4.989355   4.320917   0.000000
    10  H    2.165516   4.320781   4.989362   2.495147   0.000000
    11  H    1.099604   2.494641   4.320704   4.320988   2.494420
    12  C    4.330080   4.707369   2.741654   2.741430   4.707691
    13  O    5.081485   5.388855   3.351919   3.352790   5.389775
    14  Cl   5.425785   5.709353   3.685198   3.683258   5.708720
                   11         12         13         14
    11  H    0.000000
    12  C    5.429684   0.000000
    13  O    6.160161   1.258400   0.000000
    14  Cl   6.488320   1.760000   2.624567   0.000000
 Stoichiometry    C7H5ClO
 Framework group  C1[X(C7H5ClO)]
 Deg. of freedom    36
 Full point group                 C1      NOp   1
 Largest Abelian subgroup         C1      NOp   1
 Largest concise Abelian subgroup C1      NOp   1
                         Standard orientation:                         
 ---------------------------------------------------------------------
 Center     Atomic      Atomic             Coordinates (Angstroms)
 Number     Number       Type             X           Y           Z
 ---------------------------------------------------------------------
      1          6           0        2.213282   -1.207597   -0.134993
      2          6           0        0.837874   -1.208268    0.098939
      3          6           0        0.149917   -0.000854    0.217627
      4          6           0        0.837600    1.207988    0.103562
      5          6           0        2.212758    1.208580   -0.129842
      6          6           0        2.900611    0.000712   -0.249524
      7          1           0        2.755415   -2.159648   -0.228981
      8          1           0        0.296158   -2.161042    0.188416
      9          1           0        0.294967    2.159865    0.197238
     10          1           0        2.755019    2.161123   -0.219780
     11          1           0        3.984677    0.001423   -0.433721
     12          6           0       -1.368429   -0.001481    0.474970
     13          8           0       -1.811337   -0.004826    1.652846
     14         17           0       -2.488072    0.002495   -0.882963
 ---------------------------------------------------------------------
 Rotational constants (GHZ):           3.0659332           0.7978425           0.7819058
 Standard basis: 6-31G(d,p) (6D, 7F)
 There are   164 symmetry adapted cartesian basis functions of A   symmetry.
 There are   164 symmetry adapted basis functions of A   symmetry.
   164 basis functions,   311 primitive gaussians,   164 cartesian basis functions
    36 alpha electrons       36 beta electrons
       nuclear repulsion energy       454.3735172604 Hartrees.
 NAtoms=   14 NActive=   14 NUniq=   14 SFac= 1.00D+00 NAtFMM=   60 NAOKFM=F Big=F
 Integral buffers will be    131072 words long.
 Raffenetti 2 integral format.
 Two-electron integral symmetry is turned on.
 Nuclear repulsion after empirical dispersion term =      454.3459203871 Hartrees.
 One-electron integrals computed using PRISM.
 NBasis=   164 RedAO= T EigKep=  4.73D-04  NBF=   164
 NBsUse=   164 1.00D-06 EigRej= -1.00D+00 NBFU=   164
 ExpMin= 1.43D-01 ExpMax= 2.52D+04 ExpMxC= 3.78D+03 IAcc=3 IRadAn=         5 AccDes= 0.00D+00
 Harris functional with IExCor=  402 and IRadAn=       5 diagonalized for initial guess.
 HarFok:  IExCor=  402 AccDes= 0.00D+00 IRadAn=         5 IDoV= 1 UseB2=F ITyADJ=14
 ICtDFT=  3500011 ScaDFX=  1.000000  1.000000  1.000000  1.000000
 FoFCou: FMM=F IPFlag=           0 FMFlag=      100000 FMFlg1=           0
         NFxFlg=           0 DoJE=T BraDBF=F KetDBF=T FulRan=T
         wScrn=  0.000000 ICntrl=       500 IOpCl=  0 I1Cent=   200000004 NGrid=           0
         NMat0=    1 NMatS0=      1 NMatT0=    0 NMatD0=    1 NMtDS0=    0 NMtDT0=    0
 Petite list used in FoFCou.
 Keep R1 ints in memory in canonical form, NReq=93784540.
 Requested convergence on RMS density matrix=1.00D-08 within 128 cycles.
 Requested convergence on MAX density matrix=1.00D-06.
 Requested convergence on             energy=1.00D-06.
 No special actions if energy rises.
 Integral accuracy reduced to 1.0D-05 until final iterations.
 Initial convergence to 1.0D-05 achieved.  Increase integral accuracy.
 SCF Done:  E(RB3LYP) =  -805.198889349     A.U. after   14 cycles
            NFock= 14  Conv=0.72D-08     -V/T= 2.0062

 **********************************************************************

            Population analysis using the SCF Density.

 **********************************************************************

 Orbital symmetries:
       Occupied  (A) (A) (A) (A) (A) (A) (A) (A) (A) (A) (A) (A)
                 (A) (A) (A) (A) (A) (A) (A) (A) (A) (A) (A) (A)
                 (A) (A) (A) (A) (A) (A) (A) (A) (A) (A) (A) (A)
       Virtual   (A) (A) (A) (A) (A) (A) (A) (A) (A) (A) (A) (A)
                 (A) (A) (A) (A) (A) (A) (A) (A) (A) (A) (A) (A)
                 (A) (A) (A) (A) (A) (A) (A) (A) (A) (A) (A) (A)
                 (A) (A) (A) (A) (A) (A) (A) (A) (A) (A) (A) (A)
                 (A) (A) (A) (A) (A) (A) (A) (A) (A) (A) (A) (A)
                 (A) (A) (A) (A) (A) (A) (A) (A) (A) (A) (A) (A)
                 (A) (A) (A) (A) (A) (A) (A) (A) (A) (A) (A) (A)
                 (A) (A) (A) (A) (A) (A) (A) (A) (A) (A) (A) (A)
                 (A) (A) (A) (A) (A) (A) (A) (A) (A) (A) (A) (A)
                 (A) (A) (A) (A) (A) (A) (A) (A) (A) (A) (A) (A)
                 (A) (A) (A) (A) (A) (A) (A) (A)
 The electronic state is 1-A.
 Alpha  occ. eigenvalues -- -101.56547 -19.17915 -10.34978 -10.23264 -10.21593
 Alpha  occ. eigenvalues --  -10.21589 -10.21146 -10.21131 -10.21027  -9.48315
 Alpha  occ. eigenvalues --   -7.24643  -7.23820  -7.23657  -1.05385  -0.87947
 Alpha  occ. eigenvalues --   -0.86274  -0.77496  -0.76426  -0.64893  -0.62419
 Alpha  occ. eigenvalues --   -0.57575  -0.52580  -0.48706  -0.47611  -0.46216
 Alpha  occ. eigenvalues --   -0.44967  -0.43834  -0.41102  -0.38428  -0.37939
 Alpha  occ. eigenvalues --   -0.36214  -0.33169  -0.32943  -0.29475  -0.27005
 Alpha  occ. eigenvalues --   -0.26488
 Alpha virt. eigenvalues --   -0.05772  -0.02870  -0.01996   0.02456   0.07845
 Alpha virt. eigenvalues --    0.12467   0.13551   0.13999   0.16705   0.17128
 Alpha virt. eigenvalues --    0.22837   0.23488   0.28629   0.30517   0.31414
 Alpha virt. eigenvalues --    0.31723   0.35774   0.41179   0.41490   0.43669
 Alpha virt. eigenvalues --    0.46157   0.51192   0.51797   0.52318   0.53919
 Alpha virt. eigenvalues --    0.56232   0.57628   0.58193   0.58470   0.59694
 Alpha virt. eigenvalues --    0.60044   0.61026   0.63813   0.63822   0.65017
 Alpha virt. eigenvalues --    0.69904   0.73444   0.77043   0.78276   0.79372
 Alpha virt. eigenvalues --    0.80548   0.81895   0.82169   0.83798   0.85121
 Alpha virt. eigenvalues --    0.87994   0.88434   0.90689   0.93265   0.95820
 Alpha virt. eigenvalues --    0.96968   1.00924   1.04301   1.05579   1.08686
 Alpha virt. eigenvalues --    1.10557   1.13187   1.15484   1.16747   1.21284
 Alpha virt. eigenvalues --    1.23302   1.31673   1.38364   1.38771   1.39937
 Alpha virt. eigenvalues --    1.40569   1.41546   1.51531   1.54188   1.61394
 Alpha virt. eigenvalues --    1.72649   1.73882   1.76605   1.77318   1.82783
 Alpha virt. eigenvalues --    1.83665   1.86635   1.88387   1.90773   1.93720
 Alpha virt. eigenvalues --    1.95561   1.97181   2.00377   2.00485   2.01485
 Alpha virt. eigenvalues --    2.08121   2.12390   2.21763   2.26530   2.26607
 Alpha virt. eigenvalues --    2.29992   2.34057   2.35045   2.37576   2.38103
 Alpha virt. eigenvalues --    2.41582   2.46027   2.46838   2.47516   2.49290
 Alpha virt. eigenvalues --    2.50427   2.56444   2.59822   2.60812   2.64526
 Alpha virt. eigenvalues --    2.69886   2.75515   2.76081   2.84075   2.89497
 Alpha virt. eigenvalues --    2.95080   3.01528   3.16759   3.19071   3.19812
 Alpha virt. eigenvalues --    3.30900   3.37369   3.46111   3.84059   3.86071
 Alpha virt. eigenvalues --    4.06453   4.12064   4.13920   4.17823   4.32787
 Alpha virt. eigenvalues --    4.41343   4.44620   4.80156
          Condensed to atoms (all electrons):
               1          2          3          4          5          6
     1  C    4.807265   0.535033  -0.029981  -0.044854  -0.030044   0.548179
     2  C    0.535033   4.824021   0.546667  -0.031064  -0.044868  -0.040410
     3  C   -0.029981   0.546667   4.882411   0.546191  -0.029969  -0.034784
     4  C   -0.044854  -0.031064   0.546191   4.824081   0.535384  -0.040415
     5  C   -0.030044  -0.044868  -0.029969   0.535384   4.807273   0.547856
     6  C    0.548179  -0.040410  -0.034784  -0.040415   0.547856   4.797950
     7  H    0.367462  -0.036771   0.004151   0.000856   0.004227  -0.039372
     8  H   -0.036242   0.370397  -0.044606   0.004598   0.000435   0.004468
     9  H    0.000435   0.004598  -0.044590   0.370384  -0.036223   0.004464
    10  H    0.004226   0.000856   0.004147  -0.036767   0.367442  -0.039366
    11  H   -0.039839   0.004715   0.000612   0.004714  -0.039844   0.368786
    12  C    0.004723  -0.040067   0.277543  -0.040059   0.004719   0.000257
    13  O    0.000032  -0.000961  -0.069303  -0.000963   0.000031  -0.000004
    14  Cl  -0.000239   0.000904  -0.082865   0.000905  -0.000239   0.000007
               7          8          9         10         11         12
     1  C    0.367462  -0.036242   0.000435   0.004226  -0.039839   0.004723
     2  C   -0.036771   0.370397   0.004598   0.000856   0.004715  -0.040067
     3  C    0.004151  -0.044606  -0.044590   0.004147   0.000612   0.277543
     4  C    0.000856   0.004598   0.370384  -0.036767   0.004714  -0.040059
     5  C    0.004227   0.000435  -0.036223   0.367442  -0.039844   0.004719
     6  C   -0.039372   0.004468   0.004464  -0.039366   0.368786   0.000257
     7  H    0.610471  -0.005718   0.000015  -0.000176  -0.005861  -0.000141
     8  H   -0.005718   0.603531  -0.000160   0.000015  -0.000166  -0.006125
     9  H    0.000015  -0.000160   0.603486  -0.005712  -0.000165  -0.006121
    10  H   -0.000176   0.000015  -0.005712   0.610481  -0.005861  -0.000141
    11  H   -0.005861  -0.000166  -0.000165  -0.005861   0.615201   0.000006
    12  C   -0.000141  -0.006125  -0.006121  -0.000141   0.000006   4.901852
    13  O    0.000000   0.000390   0.000388   0.000000  -0.000000   0.486838
    14  Cl   0.000005   0.001086   0.001089   0.000005  -0.000000   0.226121
              13         14
     1  C    0.000032  -0.000239
     2  C   -0.000961   0.000904
     3  C   -0.069303  -0.082865
     4  C   -0.000963   0.000905
     5  C    0.000031  -0.000239
     6  C   -0.000004   0.000007
     7  H    0.000000   0.000005
     8  H    0.000390   0.001086
     9  H    0.000388   0.001089
    10  H    0.000000   0.000005
    11  H   -0.000000  -0.000000
    12  C    0.486838   0.226121
    13  O    8.017679  -0.074445
    14  Cl  -0.074445  16.912577
 Mulliken charges:
               1
     1  C   -0.086156
     2  C   -0.093049
     3  C    0.074375
     4  C   -0.092990
     5  C   -0.086180
     6  C   -0.077616
     7  H    0.100852
     8  H    0.108097
     9  H    0.108112
    10  H    0.100852
    11  H    0.097703
    12  C    0.190595
    13  O   -0.359682
    14  Cl   0.015089
 Sum of Mulliken charges =  -0.00000
 Mulliken charges with hydrogens summed into heavy atoms:
               1
     1  C    0.014696
     2  C    0.015048
     3  C    0.074375
     4  C    0.015122
     5  C    0.014672
     6  C    0.020087
    12  C    0.190595
    13  O   -0.359682
    14  Cl   0.015089
 Electronic spatial extent (au):  <R**2>=           1496.2283
 Charge=             -0.0000 electrons
 Dipole moment (field-independent basis, Debye):
    X=              2.9036    Y=              0.0038    Z=             -1.4355  Tot=              3.2391
 Quadrupole moment (field-independent basis, Debye-Ang):
   XX=            -56.2452   YY=            -51.4088   ZZ=            -63.8557
   XY=             -0.0076   XZ=              2.0761   YZ=              0.0297
 Traceless Quadrupole moment (field-independent basis, Debye-Ang):
   XX=              0.9247   YY=              5.7611   ZZ=             -6.6858
   XY=             -0.0076   XZ=              2.0761   YZ=              0.0297
 Octapole moment (field-independent basis, Debye-Ang**2):
  XXX=             14.5478  YYY=             -0.0185  ZZZ=             -5.3253  XYY=              0.7526
  XXY=              0.0327  XXZ=            -11.5668  XZZ=             -5.0679  YZZ=              0.0227
  YYZ=              1.4617  XYZ=              0.0066
 Hexadecapole moment (field-independent basis, Debye-Ang**3):
 XXXX=          -1342.7798 YYYY=           -282.1548 ZZZZ=           -228.9212 XXXY=             -0.0068
 XXXZ=              4.0216 YYYX=              0.0215 YYYZ=              0.0615 ZZZX=             16.8239
 ZZZY=             -0.0217 XXYY=           -267.0817 XXZZ=           -289.1857 YYZZ=            -92.6504
 XXYZ=              0.0752 YYXZ=             -4.4035 ZZXY=             -0.0702
 N-N= 4.543459203871D+02 E-N=-2.803736994553D+03  KE= 8.002015648001D+02
 Calling FoFJK, ICntrl=      2127 FMM=F ISym2X=0 I1Cent= 0 IOpClX= 0 NMat=1 NMatS=1 NMatT=0.
 ***** Axes restored to original set *****
 -------------------------------------------------------------------
 Center     Atomic                   Forces (Hartrees/Bohr)
 Number     Number              X              Y              Z
 -------------------------------------------------------------------
      1        6          -0.003730613   -0.006501685   -0.000914640
      2        6           0.005212706   -0.012848971    0.000463518
      3        6           0.020788569    0.000401904    0.012476408
      4        6           0.005593620    0.012426677    0.000387680
      5        6          -0.003970531    0.006509427   -0.000886317
      6        6          -0.009532689    0.000105684    0.000077302
      7        1           0.005446747    0.007913148   -0.000130275
      8        1          -0.004425304    0.008266308    0.000365732
      9        1          -0.004488378   -0.008256823    0.000395137
     10        1           0.005510556   -0.007980507   -0.000116558
     11        1           0.009321792   -0.000008648    0.000196163
     12        6           0.017640138   -0.000144822   -0.095400115
     13        8          -0.039887406    0.000103724    0.076740800
     14       17          -0.003479207    0.000014583    0.006345164
 -------------------------------------------------------------------
 Cartesian Forces:  Max     0.095400115 RMS     0.021026010

 GradGradGradGradGradGradGradGradGradGradGradGradGradGradGradGradGradGrad
 Berny optimization.
 FormGI is forming the generalized inverse of G from B-inverse, IUseBI=4.
 Internal  Forces:  Max     0.086385456 RMS     0.012034738
 Search for a local minimum.
 Step number   1 out of a maximum of   73
 All quantities printed in internal units (Hartrees-Bohrs-Radians)
 Mixed Optimization -- RFO/linear search
 Second derivative matrix not updated -- first step.
 ITU=  0
     Eigenvalues ---    0.00237   0.00237   0.01564   0.02152   0.02153
     Eigenvalues ---    0.02154   0.02155   0.02155   0.02155   0.02156
     Eigenvalues ---    0.02157   0.16000   0.16000   0.16000   0.16000
     Eigenvalues ---    0.16000   0.22000   0.22000   0.23486   0.25000
     Eigenvalues ---    0.25000   0.25000   0.28519   0.29539   0.33709
     Eigenvalues ---    0.33718   0.33720   0.33725   0.33726   0.42116
     Eigenvalues ---    0.42305   0.46412   0.46453   0.46466   0.46497
     Eigenvalues ---    0.80209
 RFO step:  Lambda=-1.48179162D-02 EMin= 2.36824211D-03
 Linear search not attempted -- first point.
 Iteration  1 RMS(Cart)=  0.03206278 RMS(Int)=  0.00048921
 Iteration  2 RMS(Cart)=  0.00062878 RMS(Int)=  0.00004039
 Iteration  3 RMS(Cart)=  0.00000025 RMS(Int)=  0.00004039
 Variable       Old X    -DE/DX   Delta X   Delta X   Delta X     New X
                                 (Linear)    (Quad)   (Total)
    R1        2.63647  -0.00158   0.00000  -0.00330  -0.00330   2.63317
    R2        2.63584   0.00070   0.00000   0.00134   0.00133   2.63717
    R3        2.07796  -0.00958   0.00000  -0.02720  -0.02720   2.05076
    R4        2.63562   0.00092   0.00000   0.00206   0.00207   2.63769
    R5        2.07805  -0.00937   0.00000  -0.02662  -0.02662   2.05143
    R6        2.63697   0.00050   0.00000   0.00117   0.00119   2.63816
    R7        2.91018  -0.02573   0.00000  -0.08578  -0.08578   2.82440
    R8        2.63584  -0.00146   0.00000  -0.00305  -0.00305   2.63278
    R9        2.07809  -0.00939   0.00000  -0.02669  -0.02669   2.05140
   R10        2.63643   0.00060   0.00000   0.00110   0.00109   2.63752
   R11        2.07825  -0.00967   0.00000  -0.02747  -0.02747   2.05078
   R12        2.07795  -0.00932   0.00000  -0.02648  -0.02648   2.05147
   R13        2.37803  -0.08639   0.00000  -0.10575  -0.10575   2.27228
   R14        3.32592   0.00377   0.00000   0.01216   0.01216   3.33808
    A1        2.09437   0.00054   0.00000   0.00233   0.00232   2.09669
    A2        2.09435  -0.00106   0.00000  -0.00568  -0.00568   2.08866
    A3        2.09447   0.00052   0.00000   0.00336   0.00336   2.09783
    A4        2.09455  -0.00251   0.00000  -0.01009  -0.01007   2.08448
    A5        2.09406   0.00156   0.00000   0.00682   0.00680   2.10085
    A6        2.09458   0.00095   0.00000   0.00328   0.00325   2.09783
    A7        2.09429   0.00344   0.00000   0.01372   0.01368   2.10797
    A8        2.09462  -0.00173   0.00000  -0.00691  -0.00700   2.08761
    A9        2.09427  -0.00171   0.00000  -0.00682  -0.00692   2.08735
   A10        2.09429  -0.00246   0.00000  -0.00992  -0.00991   2.08438
   A11        2.09407   0.00097   0.00000   0.00350   0.00348   2.09755
   A12        2.09483   0.00148   0.00000   0.00642   0.00640   2.10123
   A13        2.09448   0.00054   0.00000   0.00230   0.00230   2.09678
   A14        2.09459  -0.00108   0.00000  -0.00579  -0.00578   2.08881
   A15        2.09411   0.00054   0.00000   0.00348   0.00349   2.09760
   A16        2.09440   0.00045   0.00000   0.00166   0.00164   2.09604
   A17        2.09453  -0.00023   0.00000  -0.00087  -0.00086   2.09367
   A18        2.09426  -0.00022   0.00000  -0.00079  -0.00078   2.09348
   A19        2.09836   0.01354   0.00000   0.05112   0.05112   2.14947
   A20        2.09241  -0.01704   0.00000  -0.06435  -0.06435   2.02807
   A21        2.09241   0.00350   0.00000   0.01323   0.01323   2.10564
    D1        0.00056  -0.00025   0.00000  -0.00613  -0.00607  -0.00551
    D2        3.14078   0.00007   0.00000   0.00253   0.00257  -3.13984
    D3       -3.14112  -0.00021   0.00000  -0.00539  -0.00536   3.13670
    D4       -0.00091   0.00011   0.00000   0.00326   0.00329   0.00238
    D5        0.00026   0.00009   0.00000   0.00277   0.00281   0.00307
    D6        3.14140   0.00011   0.00000   0.00284   0.00283  -3.13895
    D7       -3.14124   0.00005   0.00000   0.00204   0.00209  -3.13915
    D8       -0.00010   0.00007   0.00000   0.00211   0.00212   0.00202
    D9       -0.00099   0.00040   0.00000   0.00919   0.00916   0.00817
   D10        3.14093   0.00111   0.00000   0.03258   0.03262  -3.10964
   D11       -3.14120   0.00007   0.00000   0.00053   0.00053  -3.14067
   D12        0.00072   0.00079   0.00000   0.02392   0.02399   0.02470
   D13        0.00060  -0.00039   0.00000  -0.00892  -0.00889  -0.00829
   D14       -3.14153  -0.00009   0.00000  -0.00084  -0.00084   3.14081
   D15       -3.14132  -0.00110   0.00000  -0.03230  -0.03234   3.10952
   D16       -0.00026  -0.00080   0.00000  -0.02423  -0.02429  -0.02456
   D17        1.56966  -0.00036   0.00000  -0.01206  -0.01195   1.55771
   D18       -1.57193  -0.00036   0.00000  -0.01216  -0.01205  -1.58398
   D19       -1.57161   0.00035   0.00000   0.01133   0.01122  -1.56038
   D20        1.56999   0.00035   0.00000   0.01123   0.01112   1.58111
   D21        0.00023   0.00023   0.00000   0.00557   0.00552   0.00575
   D22       -3.14158   0.00020   0.00000   0.00509   0.00505  -3.13653
   D23       -3.14083  -0.00007   0.00000  -0.00250  -0.00254   3.13981
   D24        0.00054  -0.00010   0.00000  -0.00299  -0.00301  -0.00247
   D25       -0.00066  -0.00008   0.00000  -0.00250  -0.00253  -0.00319
   D26        3.14138  -0.00010   0.00000  -0.00257  -0.00256   3.13883
   D27        3.14116  -0.00005   0.00000  -0.00202  -0.00206   3.13909
   D28        0.00001  -0.00007   0.00000  -0.00208  -0.00209  -0.00208
         Item               Value     Threshold  Converged?
 Maximum Force            0.086385     0.000450     NO 
 RMS     Force            0.012035     0.000300     NO 
 Maximum Displacement     0.177563     0.001800     NO 
 RMS     Displacement     0.032478     0.001200     NO 
 Predicted change in Energy=-7.661734D-03
 GradGradGradGradGradGradGradGradGradGradGradGradGradGradGradGradGradGrad

                          Input orientation:                          
 ---------------------------------------------------------------------
 Center     Atomic      Atomic             Coordinates (Angstroms)
 Number     Number       Type             X           Y           Z
 ---------------------------------------------------------------------
      1          6           0       -3.386037    0.375618    0.002799
      2          6           0       -1.992630    0.371141    0.003901
      3          6           0       -1.302845    1.584587   -0.001105
      4          6           0       -1.992517    2.798386    0.002620
      5          6           0       -3.385719    2.794053    0.001378
      6          6           0       -4.082695    1.584822    0.003386
      7          1           0       -3.926276   -0.565571    0.002069
      8          1           0       -1.446795   -0.567218    0.001804
      9          1           0       -1.446240    3.736471   -0.000600
     10          1           0       -3.926002    3.735224   -0.000512
     11          1           0       -5.168287    1.585031    0.005012
     12          6           0        0.191219    1.584616   -0.041461
     13          8           0        0.821435    1.582756   -1.065515
     14         17           0        1.013613    1.587739    1.521853
 ---------------------------------------------------------------------
                    Distance matrix (angstroms):
                    1          2          3          4          5
     1  C    0.000000
     2  C    1.393415   0.000000
     3  C    2.408592   1.395808   0.000000
     4  C    2.794943   2.427245   1.396055   0.000000
     5  C    2.418435   2.794853   2.408563   1.393209   0.000000
     6  C    1.395531   2.416897   2.779853   2.416936   1.395714
     7  H    1.085217   2.148586   3.391988   3.880159   3.402833
     8  H    2.156294   1.085568   2.156617   3.409561   3.880408
     9  H    3.880485   3.409400   2.156656   1.085556   2.156324
    10  H    3.402723   3.880077   3.392077   2.148497   1.085225
    11  H    2.153856   3.399753   3.865446   3.399669   2.153903
    12  C    3.776294   2.498755   1.494609   2.498776   3.776116
    13  O    4.505697   3.245092   2.376034   3.246074   4.506179
    14  Cl   4.809749   3.580752   2.772253   3.579183   4.808446
                    6          7          8          9         10
     6  C    0.000000
     7  H    2.156075   0.000000
     8  H    3.402829   2.479482   0.000000
     9  H    3.403013   4.965698   4.303690   0.000000
    10  H    2.156106   4.300796   4.965630   2.479762   0.000000
    11  H    1.085593   2.483483   4.299033   4.299111   2.483270
    12  C    4.274149   4.645317   2.704690   2.704334   4.645245
    13  O    5.019267   5.319380   3.302487   3.303769   5.320292
    14  Cl   5.317716   5.599017   3.606659   3.603580   5.597238
                   11         12         13         14
    11  H    0.000000
    12  C    5.359707   0.000000
    13  O    6.084637   1.202441   0.000000
    14  Cl   6.365272   1.766434   2.594500   0.000000
 Stoichiometry    C7H5ClO
 Framework group  C1[X(C7H5ClO)]
 Deg. of freedom    36
 Full point group                 C1      NOp   1
 Largest Abelian subgroup         C1      NOp   1
 Largest concise Abelian subgroup C1      NOp   1
                         Standard orientation:                         
 ---------------------------------------------------------------------
 Center     Atomic      Atomic             Coordinates (Angstroms)
 Number     Number       Type             X           Y           Z
 ---------------------------------------------------------------------
      1          6           0        2.175794   -1.208434   -0.132124
      2          6           0        0.801749   -1.214042    0.099338
      3          6           0        0.122003   -0.001174    0.222532
      4          6           0        0.800907    1.213191    0.106887
      5          6           0        2.174776    1.209989   -0.124426
      6          6           0        2.862111    0.001335   -0.245853
      7          1           0        2.708943   -2.149181   -0.224000
      8          1           0        0.264284   -2.152848    0.190083
      9          1           0        0.262466    2.150820    0.203657
     10          1           0        2.707431    2.151592   -0.210305
     11          1           0        3.932205    0.002432   -0.428641
     12          6           0       -1.344369   -0.002462    0.511681
     13          8           0       -1.794829   -0.007377    1.626547
     14         17           0       -2.416149    0.003870   -0.892434
 ---------------------------------------------------------------------
 Rotational constants (GHZ):           3.0687879           0.8286244           0.8106663
 Standard basis: 6-31G(d,p) (6D, 7F)
 There are   164 symmetry adapted cartesian basis functions of A   symmetry.
 There are   164 symmetry adapted basis functions of A   symmetry.
   164 basis functions,   311 primitive gaussians,   164 cartesian basis functions
    36 alpha electrons       36 beta electrons
       nuclear repulsion energy       459.7210728663 Hartrees.
 NAtoms=   14 NActive=   14 NUniq=   14 SFac= 1.00D+00 NAtFMM=   60 NAOKFM=F Big=F
 Integral buffers will be    131072 words long.
 Raffenetti 2 integral format.
 Two-electron integral symmetry is turned on.
 Nuclear repulsion after empirical dispersion term =      459.6931065939 Hartrees.
 One-electron integrals computed using PRISM.
 NBasis=   164 RedAO= T EigKep=  4.73D-04  NBF=   164
 NBsUse=   164 1.00D-06 EigRej= -1.00D+00 NBFU=   164
 Initial guess from the checkpoint file:  "reactant0.chk"
 B after Tr=     0.000000    0.000000   -0.000000
         Rot=    0.999997   -0.000657    0.002263   -0.000027 Ang=  -0.27 deg.
 ExpMin= 1.43D-01 ExpMax= 2.52D+04 ExpMxC= 3.78D+03 IAcc=3 IRadAn=         5 AccDes= 0.00D+00
 Harris functional with IExCor=  402 and IRadAn=       5 diagonalized for initial guess.
 HarFok:  IExCor=  402 AccDes= 0.00D+00 IRadAn=         5 IDoV= 1 UseB2=F ITyADJ=14
 ICtDFT=  3500011 ScaDFX=  1.000000  1.000000  1.000000  1.000000
 FoFCou: FMM=F IPFlag=           0 FMFlag=      100000 FMFlg1=           0
         NFxFlg=           0 DoJE=T BraDBF=F KetDBF=T FulRan=T
         wScrn=  0.000000 ICntrl=       500 IOpCl=  0 I1Cent=   200000004 NGrid=           0
         NMat0=    1 NMatS0=      1 NMatT0=    0 NMatD0=    1 NMtDS0=    0 NMtDT0=    0
 Petite list used in FoFCou.
 Keep R1 ints in memory in canonical form, NReq=93784540.
 Requested convergence on RMS density matrix=1.00D-08 within 128 cycles.
 Requested convergence on MAX density matrix=1.00D-06.
 Requested convergence on             energy=1.00D-06.
 No special actions if energy rises.
 Integral accuracy reduced to 1.0D-05 until final iterations.
 Initial convergence to 1.0D-05 achieved.  Increase integral accuracy.
 SCF Done:  E(RB3LYP) =  -805.207855798     A.U. after   13 cycles
            NFock= 13  Conv=0.38D-08     -V/T= 2.0058
 Calling FoFJK, ICntrl=      2127 FMM=F ISym2X=0 I1Cent= 0 IOpClX= 0 NMat=1 NMatS=1 NMatT=0.
 ***** Axes restored to original set *****
 -------------------------------------------------------------------
 Center     Atomic                   Forces (Hartrees/Bohr)
 Number     Number              X              Y              Z
 -------------------------------------------------------------------
      1        6          -0.000459314    0.000328717   -0.000047784
      2        6          -0.000744787   -0.001300892   -0.000484569
      3        6           0.002530878    0.000128597    0.007621923
      4        6          -0.000578349    0.001148377   -0.000487982
      5        6          -0.000616566   -0.000373838   -0.000042750
      6        6          -0.000389182    0.000072979   -0.000066612
      7        1          -0.000042080    0.000015384    0.000015483
      8        1           0.000121945    0.000454122    0.000296432
      9        1           0.000099017   -0.000432813    0.000305839
     10        1          -0.000030536   -0.000012329    0.000015718
     11        1           0.000165801   -0.000005782   -0.000006724
     12        6          -0.000871437   -0.000059823   -0.031719082
     13        8          -0.002714276    0.000007167    0.011573259
     14       17           0.003528887    0.000030134    0.013026848
 -------------------------------------------------------------------
 Cartesian Forces:  Max     0.031719082 RMS     0.005775250

 GradGradGradGradGradGradGradGradGradGradGradGradGradGradGradGradGradGrad
 Berny optimization.
 Using GEDIIS/GDIIS optimizer.
 FormGI is forming the generalized inverse of G from B-inverse, IUseBI=4.
 Internal  Forces:  Max     0.013172543 RMS     0.002748570
 Search for a local minimum.
 Step number   2 out of a maximum of   73
 All quantities printed in internal units (Hartrees-Bohrs-Radians)
 Mixed Optimization -- RFO/linear search
 Update second derivatives using D2CorX and points    1    2
 DE= -8.97D-03 DEPred=-7.66D-03 R= 1.17D+00
 TightC=F SS=  1.41D+00  RLast= 1.85D-01 DXNew= 5.0454D-01 5.5429D-01
 Trust test= 1.17D+00 RLast= 1.85D-01 DXMaxT set to 5.05D-01
 ITU=  1  0
 Use linear search instead of GDIIS.
     Eigenvalues ---    0.00237   0.00237   0.01576   0.02152   0.02154
     Eigenvalues ---    0.02154   0.02155   0.02155   0.02156   0.02156
     Eigenvalues ---    0.02162   0.15986   0.16000   0.16000   0.16000
     Eigenvalues ---    0.16007   0.20463   0.22000   0.22010   0.23591
     Eigenvalues ---    0.24993   0.25019   0.28033   0.30789   0.33711
     Eigenvalues ---    0.33719   0.33722   0.33726   0.35465   0.42151
     Eigenvalues ---    0.42281   0.46407   0.46459   0.46479   0.46512
     Eigenvalues ---    0.77819
 RFO step:  Lambda=-1.37440327D-03 EMin= 2.36823921D-03
 Quartic linear search produced a step of  0.16559.
 Iteration  1 RMS(Cart)=  0.01837216 RMS(Int)=  0.00036522
 Iteration  2 RMS(Cart)=  0.00053584 RMS(Int)=  0.00000794
 Iteration  3 RMS(Cart)=  0.00000026 RMS(Int)=  0.00000793
 Variable       Old X    -DE/DX   Delta X   Delta X   Delta X     New X
                                 (Linear)    (Quad)   (Total)
    R1        2.63317   0.00064  -0.00055   0.00193   0.00138   2.63455
    R2        2.63717  -0.00010   0.00022  -0.00050  -0.00029   2.63688
    R3        2.05076   0.00001  -0.00450   0.00307  -0.00144   2.04933
    R4        2.63769   0.00123   0.00034   0.00298   0.00333   2.64102
    R5        2.05143  -0.00033  -0.00441   0.00183  -0.00257   2.04885
    R6        2.63816   0.00111   0.00020   0.00279   0.00299   2.64115
    R7        2.82440   0.00014  -0.01420   0.01079  -0.00342   2.82098
    R8        2.63278   0.00073  -0.00051   0.00214   0.00164   2.63442
    R9        2.05140  -0.00033  -0.00442   0.00187  -0.00255   2.04885
   R10        2.63752  -0.00018   0.00018  -0.00069  -0.00051   2.63701
   R11        2.05078   0.00000  -0.00455   0.00309  -0.00146   2.04932
   R12        2.05147  -0.00017  -0.00438   0.00239  -0.00199   2.04948
   R13        2.27228  -0.01128  -0.01751  -0.00708  -0.02459   2.24770
   R14        3.33808   0.01317   0.00201   0.05029   0.05230   3.39038
    A1        2.09669   0.00027   0.00038   0.00077   0.00115   2.09784
    A2        2.08866  -0.00009  -0.00094   0.00065  -0.00029   2.08838
    A3        2.09783  -0.00018   0.00056  -0.00142  -0.00087   2.09696
    A4        2.08448   0.00021  -0.00167   0.00262   0.00094   2.08542
    A5        2.10085   0.00024   0.00113   0.00091   0.00202   2.10287
    A6        2.09783  -0.00044   0.00054  -0.00346  -0.00294   2.09489
    A7        2.10797  -0.00089   0.00227  -0.00546  -0.00320   2.10477
    A8        2.08761   0.00042  -0.00116   0.00267   0.00149   2.08910
    A9        2.08735   0.00046  -0.00115   0.00284   0.00167   2.08903
   A10        2.08438   0.00022  -0.00164   0.00268   0.00104   2.08542
   A11        2.09755  -0.00042   0.00058  -0.00332  -0.00276   2.09479
   A12        2.10123   0.00020   0.00106   0.00070   0.00175   2.10297
   A13        2.09678   0.00026   0.00038   0.00069   0.00107   2.09785
   A14        2.08881  -0.00010  -0.00096   0.00063  -0.00033   2.08848
   A15        2.09760  -0.00016   0.00058  -0.00132  -0.00074   2.09686
   A16        2.09604  -0.00007   0.00027  -0.00124  -0.00098   2.09506
   A17        2.09367   0.00003  -0.00014   0.00059   0.00044   2.09411
   A18        2.09348   0.00004  -0.00013   0.00066   0.00053   2.09401
   A19        2.14947   0.00896   0.00846   0.03509   0.04356   2.19303
   A20        2.02807  -0.00939  -0.01066  -0.03542  -0.04607   1.98199
   A21        2.10564   0.00043   0.00219   0.00032   0.00251   2.10816
    D1       -0.00551   0.00002  -0.00101   0.00514   0.00415  -0.00136
    D2       -3.13984  -0.00006   0.00043  -0.00455  -0.00413   3.13922
    D3        3.13670   0.00002  -0.00089   0.00493   0.00406   3.14076
    D4        0.00238  -0.00005   0.00054  -0.00476  -0.00421  -0.00184
    D5        0.00307  -0.00004   0.00046  -0.00393  -0.00347  -0.00040
    D6       -3.13895   0.00000   0.00047  -0.00193  -0.00147  -3.14041
    D7       -3.13915  -0.00005   0.00035  -0.00373  -0.00338   3.14066
    D8        0.00202  -0.00001   0.00035  -0.00173  -0.00138   0.00064
    D9        0.00817  -0.00000   0.00152  -0.00635  -0.00483   0.00334
   D10       -3.10964   0.00027   0.00540  -0.00838  -0.00296  -3.11260
   D11       -3.14067   0.00007   0.00009   0.00334   0.00342  -3.13725
   D12        0.02470   0.00035   0.00397   0.00131   0.00529   0.02999
   D13       -0.00829   0.00000  -0.00147   0.00624   0.00476  -0.00353
   D14        3.14081  -0.00008  -0.00014  -0.00336  -0.00349   3.13732
   D15        3.10952  -0.00027  -0.00536   0.00826   0.00290   3.11242
   D16       -0.02456  -0.00035  -0.00402  -0.00133  -0.00536  -0.02992
   D17        1.55771  -0.00016  -0.00198  -0.00187  -0.00383   1.55388
   D18       -1.58398  -0.00015  -0.00200   0.00066  -0.00132  -1.58530
   D19       -1.56038   0.00013   0.00186  -0.00375  -0.00191  -1.56230
   D20        1.58111   0.00014   0.00184  -0.00122   0.00060   1.58171
   D21        0.00575  -0.00002   0.00091  -0.00491  -0.00401   0.00174
   D22       -3.13653  -0.00003   0.00084  -0.00484  -0.00402  -3.14055
   D23        3.13981   0.00006  -0.00042   0.00468   0.00426  -3.13911
   D24       -0.00247   0.00005  -0.00050   0.00475   0.00426   0.00179
   D25       -0.00319   0.00004  -0.00042   0.00382   0.00340   0.00021
   D26        3.13883   0.00000  -0.00042   0.00182   0.00140   3.14023
   D27        3.13909   0.00005  -0.00034   0.00375   0.00340  -3.14069
   D28       -0.00208   0.00001  -0.00035   0.00175   0.00140  -0.00067
         Item               Value     Threshold  Converged?
 Maximum Force            0.013173     0.000450     NO 
 RMS     Force            0.002749     0.000300     NO 
 Maximum Displacement     0.088076     0.001800     NO 
 RMS     Displacement     0.018666     0.001200     NO 
 Predicted change in Energy=-9.638241D-04
 GradGradGradGradGradGradGradGradGradGradGradGradGradGradGradGradGradGrad

                          Input orientation:                          
 ---------------------------------------------------------------------
 Center     Atomic      Atomic             Coordinates (Angstroms)
 Number     Number       Type             X           Y           Z
 ---------------------------------------------------------------------
      1          6           0       -3.385327    0.376196    0.005826
      2          6           0       -1.991255    0.370929   -0.007601
      3          6           0       -1.298829    1.584874   -0.016743
      4          6           0       -1.991315    2.798868   -0.008515
      5          6           0       -3.385317    2.793584    0.004690
      6          6           0       -4.082594    1.584858    0.011734
      7          1           0       -3.925413   -0.564183    0.012160
      8          1           0       -1.444743   -0.565458   -0.010026
      9          1           0       -1.444728    3.735208   -0.011714
     10          1           0       -3.925517    3.733898    0.010114
     11          1           0       -5.167070    1.584912    0.023289
     12          6           0        0.193066    1.584927   -0.068712
     13          8           0        0.852262    1.580522   -1.058755
     14         17           0        0.967005    1.588521    1.549881
 ---------------------------------------------------------------------
                    Distance matrix (angstroms):
                    1          2          3          4          5
     1  C    0.000000
     2  C    1.394146   0.000000
     3  C    2.411407   1.397568   0.000000
     4  C    2.795141   2.427939   1.397636   0.000000
     5  C    2.417389   2.795142   2.411405   1.394075   0.000000
     6  C    1.395379   2.418201   2.783910   2.418197   1.395444
     7  H    1.084456   2.148439   3.393850   3.879597   3.400935
     8  H    2.157042   1.084206   2.155287   3.408435   3.879331
     9  H    3.879329   3.408383   2.155284   1.084205   2.157037
    10  H    3.400880   3.879592   3.393894   2.148433   1.084451
    11  H    2.153116   3.400075   3.868448   3.400018   2.153109
    12  C    3.777762   2.499757   1.492801   2.499760   3.777707
    13  O    4.532206   3.263989   2.390188   3.267002   4.534260
    14  Cl   4.774582   3.558031   2.754692   3.556008   4.773102
                    6          7          8          9         10
     6  C    0.000000
     7  H    2.154781   0.000000
     8  H    3.403321   2.480769   0.000000
     9  H    3.403364   4.963781   4.300666   0.000000
    10  H    2.154773   4.298081   4.963779   2.480885   0.000000
    11  H    1.084538   2.482024   4.298944   4.298933   2.481888
    12  C    4.276417   4.646190   2.703705   2.703577   4.646183
    13  O    5.049630   5.345352   3.313803   3.318905   5.348521
    14  Cl   5.278670   5.561877   3.590190   3.586544   5.559703
                   11         12         13         14
    11  H    0.000000
    12  C    5.360926   0.000000
    13  O    6.115815   1.189429   0.000000
    14  Cl   6.321184   1.794112   2.611171   0.000000
 Stoichiometry    C7H5ClO
 Framework group  C1[X(C7H5ClO)]
 Deg. of freedom    36
 Full point group                 C1      NOp   1
 Largest Abelian subgroup         C1      NOp   1
 Largest concise Abelian subgroup C1      NOp   1
                         Standard orientation:                         
 ---------------------------------------------------------------------
 Center     Atomic      Atomic             Coordinates (Angstroms)
 Number     Number       Type             X           Y           Z
 ---------------------------------------------------------------------
      1          6           0        2.168514   -1.207482   -0.134895
      2          6           0        0.796234   -1.214761    0.110949
      3          6           0        0.114612   -0.001855    0.243043
      4          6           0        0.795583    1.213125    0.126901
      5          6           0        2.167835    1.209853   -0.118778
      6          6           0        2.854587    0.002160   -0.249581
      7          1           0        2.700303   -2.147055   -0.237102
      8          1           0        0.258123   -2.151902    0.198732
      9          1           0        0.256862    2.148670    0.227077
     10          1           0        2.699220    2.150930   -0.208439
     11          1           0        3.921927    0.003786   -0.441947
     12          6           0       -1.347689   -0.004183    0.543247
     13          8           0       -1.832418   -0.015499    1.629364
     14         17           0       -2.380891    0.008142   -0.923444
 ---------------------------------------------------------------------
 Rotational constants (GHZ):           3.0188517           0.8320624           0.8176278
 Standard basis: 6-31G(d,p) (6D, 7F)
 There are   164 symmetry adapted cartesian basis functions of A   symmetry.
 There are   164 symmetry adapted basis functions of A   symmetry.
   164 basis functions,   311 primitive gaussians,   164 cartesian basis functions
    36 alpha electrons       36 beta electrons
       nuclear repulsion energy       459.5799147191 Hartrees.
 NAtoms=   14 NActive=   14 NUniq=   14 SFac= 1.00D+00 NAtFMM=   60 NAOKFM=F Big=F
 Integral buffers will be    131072 words long.
 Raffenetti 2 integral format.
 Two-electron integral symmetry is turned on.
 Nuclear repulsion after empirical dispersion term =      459.5519182030 Hartrees.
 One-electron integrals computed using PRISM.
 NBasis=   164 RedAO= T EigKep=  4.74D-04  NBF=   164
 NBsUse=   164 1.00D-06 EigRej= -1.00D+00 NBFU=   164
 Initial guess from the checkpoint file:  "reactant0.chk"
 B after Tr=    -0.000000    0.000000    0.000000
         Rot=    0.999993   -0.001975    0.003264    0.000039 Ang=  -0.44 deg.
 ExpMin= 1.43D-01 ExpMax= 2.52D+04 ExpMxC= 3.78D+03 IAcc=3 IRadAn=         5 AccDes= 0.00D+00
 Harris functional with IExCor=  402 and IRadAn=       5 diagonalized for initial guess.
 HarFok:  IExCor=  402 AccDes= 0.00D+00 IRadAn=         5 IDoV= 1 UseB2=F ITyADJ=14
 ICtDFT=  3500011 ScaDFX=  1.000000  1.000000  1.000000  1.000000
 FoFCou: FMM=F IPFlag=           0 FMFlag=      100000 FMFlg1=           0
         NFxFlg=           0 DoJE=T BraDBF=F KetDBF=T FulRan=T
         wScrn=  0.000000 ICntrl=       500 IOpCl=  0 I1Cent=   200000004 NGrid=           0
         NMat0=    1 NMatS0=      1 NMatT0=    0 NMatD0=    1 NMtDS0=    0 NMtDT0=    0
 Petite list used in FoFCou.
 Keep R1 ints in memory in canonical form, NReq=93784540.
 Requested convergence on RMS density matrix=1.00D-08 within 128 cycles.
 Requested convergence on MAX density matrix=1.00D-06.
 Requested convergence on             energy=1.00D-06.
 No special actions if energy rises.
 Integral accuracy reduced to 1.0D-05 until final iterations.
 Initial convergence to 1.0D-05 achieved.  Increase integral accuracy.
 SCF Done:  E(RB3LYP) =  -805.209060269     A.U. after   12 cycles
            NFock= 12  Conv=0.38D-08     -V/T= 2.0058
 Calling FoFJK, ICntrl=      2127 FMM=F ISym2X=0 I1Cent= 0 IOpClX= 0 NMat=1 NMatS=1 NMatT=0.
 ***** Axes restored to original set *****
 -------------------------------------------------------------------
 Center     Atomic                   Forces (Hartrees/Bohr)
 Number     Number              X              Y              Z
 -------------------------------------------------------------------
      1        6           0.000514266    0.000491164   -0.000144348
      2        6          -0.000502933    0.000500712   -0.000008392
      3        6          -0.000846967    0.000150331    0.002800385
      4        6          -0.000483879   -0.000553375    0.000014453
      5        6           0.000455444   -0.000511462   -0.000137563
      6        6           0.000672539    0.000030705    0.000070627
      7        1          -0.000193116   -0.000493262   -0.000042424
      8        1           0.000306365   -0.000507740    0.000075138
      9        1           0.000296929    0.000516329    0.000085541
     10        1          -0.000190605    0.000499730   -0.000045332
     11        1          -0.000520458   -0.000004743    0.000042040
     12        6          -0.006652913   -0.000274048   -0.007598619
     13        8           0.004234711    0.000064613   -0.002639375
     14       17           0.002910616    0.000091045    0.007527868
 -------------------------------------------------------------------
 Cartesian Forces:  Max     0.007598619 RMS     0.002208151

 GradGradGradGradGradGradGradGradGradGradGradGradGradGradGradGradGradGrad
 Berny optimization.
 Using GEDIIS/GDIIS optimizer.
 FormGI is forming the generalized inverse of G from B-inverse, IUseBI=4.
 Internal  Forces:  Max     0.008048088 RMS     0.001331477
 Search for a local minimum.
 Step number   3 out of a maximum of   73
 All quantities printed in internal units (Hartrees-Bohrs-Radians)
 Mixed Optimization -- RFO/linear search
 Update second derivatives using D2CorX and points    1    2    3
 DE= -1.20D-03 DEPred=-9.64D-04 R= 1.25D+00
 TightC=F SS=  1.41D+00  RLast= 8.85D-02 DXNew= 8.4853D-01 2.6540D-01
 Trust test= 1.25D+00 RLast= 8.85D-02 DXMaxT set to 5.05D-01
 ITU=  1  1  0
 Use linear search instead of GDIIS.
     Eigenvalues ---    0.00237   0.00237   0.01577   0.02152   0.02154
     Eigenvalues ---    0.02154   0.02155   0.02155   0.02156   0.02156
     Eigenvalues ---    0.02162   0.13415   0.16000   0.16000   0.16000
     Eigenvalues ---    0.16017   0.16023   0.22000   0.22005   0.23633
     Eigenvalues ---    0.24992   0.25159   0.27609   0.29920   0.33713
     Eigenvalues ---    0.33719   0.33725   0.33728   0.35053   0.42146
     Eigenvalues ---    0.42367   0.46422   0.46460   0.46479   0.46640
     Eigenvalues ---    0.99248
 RFO step:  Lambda=-3.04173914D-04 EMin= 2.36746338D-03
 Quartic linear search produced a step of  0.49593.
 Iteration  1 RMS(Cart)=  0.02225758 RMS(Int)=  0.00079493
 Iteration  2 RMS(Cart)=  0.00108423 RMS(Int)=  0.00030008
 Iteration  3 RMS(Cart)=  0.00000130 RMS(Int)=  0.00030008
 Iteration  4 RMS(Cart)=  0.00000000 RMS(Int)=  0.00030008
 Variable       Old X    -DE/DX   Delta X   Delta X   Delta X     New X
                                 (Linear)    (Quad)   (Total)
    R1        2.63455  -0.00039   0.00069  -0.00186  -0.00118   2.63338
    R2        2.63688   0.00001  -0.00014   0.00023   0.00008   2.63697
    R3        2.04933   0.00052  -0.00071   0.00109   0.00038   2.04971
    R4        2.64102  -0.00013   0.00165  -0.00141   0.00024   2.64126
    R5        2.04885   0.00059  -0.00128   0.00180   0.00053   2.04938
    R6        2.64115  -0.00015   0.00148  -0.00140   0.00009   2.64124
    R7        2.82098   0.00059  -0.00169  -0.00074  -0.00244   2.81855
    R8        2.63442  -0.00035   0.00081  -0.00182  -0.00101   2.63341
    R9        2.04885   0.00060  -0.00127   0.00180   0.00054   2.04939
   R10        2.63701  -0.00002  -0.00025   0.00019  -0.00006   2.63694
   R11        2.04932   0.00053  -0.00072   0.00111   0.00038   2.04970
   R12        2.04948   0.00052  -0.00099   0.00131   0.00032   2.04980
   R13        2.24770   0.00454  -0.01219   0.00930  -0.00289   2.24480
   R14        3.39038   0.00805   0.02594   0.02169   0.04763   3.43801
    A1        2.09784  -0.00004   0.00057  -0.00046   0.00011   2.09795
    A2        2.08838  -0.00006  -0.00014  -0.00077  -0.00092   2.08746
    A3        2.09696   0.00010  -0.00043   0.00124   0.00081   2.09777
    A4        2.08542  -0.00007   0.00047  -0.00128  -0.00081   2.08461
    A5        2.10287   0.00004   0.00100  -0.00004   0.00095   2.10382
    A6        2.09489   0.00003  -0.00146   0.00133  -0.00014   2.09476
    A7        2.10477   0.00016  -0.00159   0.00267   0.00108   2.10586
    A8        2.08910  -0.00014   0.00074  -0.00167  -0.00094   2.08816
    A9        2.08903  -0.00003   0.00083  -0.00111  -0.00029   2.08873
   A10        2.08542  -0.00006   0.00051  -0.00125  -0.00074   2.08468
   A11        2.09479   0.00004  -0.00137   0.00136  -0.00001   2.09478
   A12        2.10297   0.00003   0.00087  -0.00011   0.00075   2.10373
   A13        2.09785  -0.00005   0.00053  -0.00050   0.00003   2.09788
   A14        2.08848  -0.00006  -0.00016  -0.00078  -0.00095   2.08753
   A15        2.09686   0.00011  -0.00037   0.00128   0.00092   2.09778
   A16        2.09506   0.00005  -0.00048   0.00082   0.00033   2.09540
   A17        2.09411  -0.00003   0.00022  -0.00044  -0.00022   2.09390
   A18        2.09401  -0.00002   0.00026  -0.00038  -0.00011   2.09389
   A19        2.19303   0.00380   0.02160   0.00966   0.02989   2.22293
   A20        1.98199  -0.00295  -0.02285  -0.00461  -0.02883   1.95317
   A21        2.10816  -0.00084   0.00125  -0.00485  -0.00498   2.10318
    D1       -0.00136  -0.00004   0.00206  -0.00264  -0.00058  -0.00195
    D2        3.13922  -0.00000  -0.00205   0.00095  -0.00110   3.13812
    D3        3.14076  -0.00003   0.00201  -0.00262  -0.00061   3.14016
    D4       -0.00184   0.00000  -0.00209   0.00097  -0.00112  -0.00296
    D5       -0.00040   0.00004  -0.00172   0.00306   0.00134   0.00094
    D6       -3.14041   0.00002  -0.00073   0.00112   0.00039  -3.14002
    D7        3.14066   0.00003  -0.00167   0.00304   0.00136  -3.14117
    D8        0.00064   0.00001  -0.00068   0.00110   0.00042   0.00106
    D9        0.00334   0.00004  -0.00240   0.00223  -0.00016   0.00318
   D10       -3.11260   0.00017  -0.00147   0.00759   0.00612  -3.10648
   D11       -3.13725   0.00000   0.00170  -0.00134   0.00035  -3.13690
   D12        0.02999   0.00013   0.00262   0.00401   0.00663   0.03662
   D13       -0.00353  -0.00004   0.00236  -0.00221   0.00015  -0.00338
   D14        3.13732  -0.00001  -0.00173   0.00110  -0.00063   3.13670
   D15        3.11242  -0.00017   0.00144  -0.00757  -0.00614   3.10628
   D16       -0.02992  -0.00014  -0.00266  -0.00426  -0.00692  -0.03684
   D17        1.55388   0.00001  -0.00190   0.03566   0.03371   1.58759
   D18       -1.58530  -0.00018  -0.00065  -0.06376  -0.06435  -1.64965
   D19       -1.56230   0.00013  -0.00095   0.04091   0.03991  -1.52239
   D20        1.58171  -0.00006   0.00030  -0.05851  -0.05815   1.52356
   D21        0.00174   0.00004  -0.00199   0.00260   0.00060   0.00234
   D22       -3.14055   0.00003  -0.00199   0.00262   0.00063  -3.13992
   D23       -3.13911   0.00001   0.00211  -0.00073   0.00139  -3.13773
   D24        0.00179   0.00000   0.00211  -0.00071   0.00141   0.00320
   D25        0.00021  -0.00003   0.00169  -0.00304  -0.00135  -0.00114
   D26        3.14023  -0.00002   0.00069  -0.00110  -0.00041   3.13982
   D27       -3.14069  -0.00003   0.00169  -0.00306  -0.00137   3.14112
   D28       -0.00067  -0.00001   0.00070  -0.00112  -0.00043  -0.00110
         Item               Value     Threshold  Converged?
 Maximum Force            0.008048     0.000450     NO 
 RMS     Force            0.001331     0.000300     NO 
 Maximum Displacement     0.130627     0.001800     NO 
 RMS     Displacement     0.022907     0.001200     NO 
 Predicted change in Energy=-2.979569D-04
 GradGradGradGradGradGradGradGradGradGradGradGradGradGradGradGradGradGrad

                          Input orientation:                          
 ---------------------------------------------------------------------
 Center     Atomic      Atomic             Coordinates (Angstroms)
 Number     Number       Type             X           Y           Z
 ---------------------------------------------------------------------
      1          6           0       -3.391370    0.373578    0.002690
      2          6           0       -1.998030    0.360014   -0.015419
      3          6           0       -1.299276    1.570490   -0.021932
      4          6           0       -1.984120    2.788796   -0.006650
      5          6           0       -3.377546    2.791154    0.011181
      6          6           0       -4.081484    1.586327    0.016551
      7          1           0       -3.936324   -0.564234    0.006429
      8          1           0       -1.456129   -0.579343   -0.023011
      9          1           0       -1.431520    3.721934   -0.007291
     10          1           0       -3.911727    3.735090    0.021489
     11          1           0       -5.166063    1.592480    0.032107
     12          6           0        0.190799    1.561766   -0.086794
     13          8           0        0.870186    1.591960   -1.060766
     14         17           0        0.942828    1.657646    1.567043
 ---------------------------------------------------------------------
                    Distance matrix (angstroms):
                    1          2          3          4          5
     1  C    0.000000
     2  C    1.393524   0.000000
     3  C    2.410407   1.397696   0.000000
     4  C    2.795302   2.428838   1.397682   0.000000
     5  C    2.417630   2.795392   2.410462   1.393541   0.000000
     6  C    1.395423   2.417776   2.782519   2.417727   1.395409
     7  H    1.084657   2.147485   3.392916   3.879959   3.401601
     8  H    2.157285   1.084484   2.155548   3.409311   3.879854
     9  H    3.879768   3.409327   2.155555   1.084488   2.157246
    10  H    3.401600   3.880043   3.392976   2.147541   1.084652
    11  H    2.153165   3.399656   3.867227   3.399623   2.153150
    12  C    3.775146   2.498054   1.491511   2.498459   3.775457
    13  O    4.558098   3.291976   2.405452   3.269655   4.542066
    14  Cl   4.783441   3.582832   2.749449   3.510419   4.729818
                    6          7          8          9         10
     6  C    0.000000
     7  H    2.155478   0.000000
     8  H    3.403554   2.480416   0.000000
     9  H    3.403483   4.964421   4.301377   0.000000
    10  H    2.155464   4.299421   4.964502   2.480409   0.000000
    11  H    1.084708   2.482807   4.299240   4.299179   2.482791
    12  C    4.273602   4.643459   2.701997   2.702696   4.643897
    13  O    5.067512   5.374999   3.347123   3.308240   5.350792
    14  Cl   5.258595   5.583762   3.645187   3.518145   5.501929
                   11         12         13         14
    11  H    0.000000
    12  C    5.358269   0.000000
    13  O    6.134385   1.187898   0.000000
    14  Cl   6.299113   1.819318   2.629634   0.000000
 Stoichiometry    C7H5ClO
 Framework group  C1[X(C7H5ClO)]
 Deg. of freedom    36
 Full point group                 C1      NOp   1
 Largest Abelian subgroup         C1      NOp   1
 Largest concise Abelian subgroup C1      NOp   1
                         Standard orientation:                         
 ---------------------------------------------------------------------
 Center     Atomic      Atomic             Coordinates (Angstroms)
 Number     Number       Type             X           Y           Z
 ---------------------------------------------------------------------
      1          6           0        2.189343   -1.174344   -0.235425
      2          6           0        0.818904   -1.231974    0.010513
      3          6           0        0.113111   -0.049032    0.247277
      4          6           0        0.767625    1.185873    0.235541
      5          6           0        2.138360    1.232327   -0.011205
      6          6           0        2.849370    0.055060   -0.247162
      7          1           0        2.739916   -2.090835   -0.418165
      8          1           0        0.299887   -2.184169    0.017731
      9          1           0        0.209065    2.097762    0.416054
     10          1           0        2.649246    2.189092   -0.019382
     11          1           0        3.915944    0.095668   -0.440454
     12          6           0       -1.344968   -0.109069    0.555505
     13          8           0       -1.852736   -0.188803    1.626446
     14         17           0       -2.363685    0.114698   -0.935154
 ---------------------------------------------------------------------
 Rotational constants (GHZ):           2.9820552           0.8340712           0.8201520
 Standard basis: 6-31G(d,p) (6D, 7F)
 There are   164 symmetry adapted cartesian basis functions of A   symmetry.
 There are   164 symmetry adapted basis functions of A   symmetry.
   164 basis functions,   311 primitive gaussians,   164 cartesian basis functions
    36 alpha electrons       36 beta electrons
       nuclear repulsion energy       459.1055906071 Hartrees.
 NAtoms=   14 NActive=   14 NUniq=   14 SFac= 1.00D+00 NAtFMM=   60 NAOKFM=F Big=F
 Integral buffers will be    131072 words long.
 Raffenetti 2 integral format.
 Two-electron integral symmetry is turned on.
 Nuclear repulsion after empirical dispersion term =      459.0775855927 Hartrees.
 One-electron integrals computed using PRISM.
 NBasis=   164 RedAO= T EigKep=  4.74D-04  NBF=   164
 NBsUse=   164 1.00D-06 EigRej= -1.00D+00 NBFU=   164
 Initial guess from the checkpoint file:  "reactant0.chk"
 B after Tr=     0.000000    0.000000    0.000000
         Rot=    0.998771   -0.049420    0.001810   -0.003286 Ang=  -5.68 deg.
 ExpMin= 1.43D-01 ExpMax= 2.52D+04 ExpMxC= 3.78D+03 IAcc=3 IRadAn=         5 AccDes= 0.00D+00
 Harris functional with IExCor=  402 and IRadAn=       5 diagonalized for initial guess.
 HarFok:  IExCor=  402 AccDes= 0.00D+00 IRadAn=         5 IDoV= 1 UseB2=F ITyADJ=14
 ICtDFT=  3500011 ScaDFX=  1.000000  1.000000  1.000000  1.000000
 FoFCou: FMM=F IPFlag=           0 FMFlag=      100000 FMFlg1=           0
         NFxFlg=           0 DoJE=T BraDBF=F KetDBF=T FulRan=T
         wScrn=  0.000000 ICntrl=       500 IOpCl=  0 I1Cent=   200000004 NGrid=           0
         NMat0=    1 NMatS0=      1 NMatT0=    0 NMatD0=    1 NMtDS0=    0 NMtDT0=    0
 Petite list used in FoFCou.
 Keep R1 ints in memory in canonical form, NReq=93784540.
 Requested convergence on RMS density matrix=1.00D-08 within 128 cycles.
 Requested convergence on MAX density matrix=1.00D-06.
 Requested convergence on             energy=1.00D-06.
 No special actions if energy rises.
 Integral accuracy reduced to 1.0D-05 until final iterations.
 Initial convergence to 1.0D-05 achieved.  Increase integral accuracy.
 SCF Done:  E(RB3LYP) =  -805.209040555     A.U. after   12 cycles
            NFock= 12  Conv=0.87D-08     -V/T= 2.0058
 Calling FoFJK, ICntrl=      2127 FMM=F ISym2X=0 I1Cent= 0 IOpClX= 0 NMat=1 NMatS=1 NMatT=0.
 ***** Axes restored to original set *****
 -------------------------------------------------------------------
 Center     Atomic                   Forces (Hartrees/Bohr)
 Number     Number              X              Y              Z
 -------------------------------------------------------------------
      1        6          -0.000120133    0.000159949    0.000110467
      2        6          -0.000283133    0.000820741   -0.000092489
      3        6          -0.000717476   -0.004270744   -0.000450428
      4        6           0.000505104   -0.000013889   -0.000017106
      5        6           0.000343931   -0.000463087    0.000075861
      6        6           0.000389025   -0.000209916   -0.000078533
      7        1          -0.000269874   -0.000289829    0.000029480
      8        1           0.000121491   -0.000342121   -0.000053133
      9        1           0.000198695    0.000281057    0.000017473
     10        1          -0.000153415    0.000324074   -0.000002279
     11        1          -0.000395116   -0.000000165    0.000009852
     12        6          -0.003308796    0.010246560   -0.000248438
     13        8           0.001884123   -0.004145473   -0.001700689
     14       17           0.001805574   -0.002097157    0.002399962
 -------------------------------------------------------------------
 Cartesian Forces:  Max     0.010246560 RMS     0.002037214

 GradGradGradGradGradGradGradGradGradGradGradGradGradGradGradGradGradGrad
 Berny optimization.
 Using GEDIIS/GDIIS optimizer.
 FormGI is forming the generalized inverse of G from B-inverse, IUseBI=4.
 Internal  Forces:  Max     0.003811510 RMS     0.001096963
 Search for a local minimum.
 Step number   4 out of a maximum of   73
 All quantities printed in internal units (Hartrees-Bohrs-Radians)
 Mixed Optimization -- RFO/linear search
 Update second derivatives using D2CorX and points    1    2    4    3
 DE=  1.97D-05 DEPred=-2.98D-04 R=-6.62D-02
 Trust test=-6.62D-02 RLast= 1.20D-01 DXMaxT set to 2.52D-01
 ITU= -1  1  1  0
 Use linear search instead of GDIIS.
     Eigenvalues ---    0.00229   0.00833   0.01613   0.02150   0.02154
     Eigenvalues ---    0.02154   0.02155   0.02155   0.02156   0.02160
     Eigenvalues ---    0.02189   0.08971   0.16000   0.16000   0.16003
     Eigenvalues ---    0.16008   0.16029   0.22003   0.22022   0.23703
     Eigenvalues ---    0.25110   0.25586   0.27255   0.29633   0.33714
     Eigenvalues ---    0.33719   0.33725   0.33731   0.34354   0.42152
     Eigenvalues ---    0.42415   0.46424   0.46470   0.46485   0.46765
     Eigenvalues ---    0.86000
 RFO step:  Lambda=-3.42893645D-03 EMin= 2.28645377D-03
 Quartic linear search produced a step of -0.52081.
 Maximum step size (   0.252) exceeded in Quadratic search.
    -- Step size scaled by   0.658
 Iteration  1 RMS(Cart)=  0.05572926 RMS(Int)=  0.00562676
 Iteration  2 RMS(Cart)=  0.00925738 RMS(Int)=  0.00243010
 Iteration  3 RMS(Cart)=  0.00007272 RMS(Int)=  0.00242883
 Iteration  4 RMS(Cart)=  0.00000002 RMS(Int)=  0.00242883
 Variable       Old X    -DE/DX   Delta X   Delta X   Delta X     New X
                                 (Linear)    (Quad)   (Total)
    R1        2.63338   0.00022   0.00061  -0.00480  -0.00419   2.62919
    R2        2.63697  -0.00018  -0.00004   0.00026   0.00021   2.63718
    R3        2.04971   0.00039  -0.00020   0.00207   0.00187   2.05158
    R4        2.64126  -0.00001  -0.00013   0.00058   0.00046   2.64172
    R5        2.04938   0.00036  -0.00027   0.00277   0.00250   2.05188
    R6        2.64124  -0.00032  -0.00005  -0.00024  -0.00028   2.64096
    R7        2.81855   0.00034   0.00127  -0.00921  -0.00794   2.81061
    R8        2.63341  -0.00002   0.00053  -0.00433  -0.00381   2.62960
    R9        2.04939   0.00034  -0.00028   0.00280   0.00252   2.05190
   R10        2.63694   0.00017   0.00003  -0.00007  -0.00005   2.63690
   R11        2.04970   0.00036  -0.00020   0.00205   0.00185   2.05154
   R12        2.04980   0.00040  -0.00017   0.00191   0.00175   2.05155
   R13        2.24480   0.00237   0.00151  -0.00809  -0.00658   2.23822
   R14        3.43801   0.00282  -0.02481   0.19080   0.16599   3.60401
    A1        2.09795  -0.00022  -0.00006   0.00001  -0.00005   2.09790
    A2        2.08746   0.00020   0.00048  -0.00332  -0.00285   2.08461
    A3        2.09777   0.00002  -0.00042   0.00332   0.00290   2.10067
    A4        2.08461   0.00011   0.00042  -0.00325  -0.00281   2.08179
    A5        2.10382  -0.00012  -0.00049   0.00338   0.00288   2.10671
    A6        2.09476   0.00001   0.00007  -0.00014  -0.00007   2.09468
    A7        2.10586   0.00012  -0.00056   0.00494   0.00435   2.11021
    A8        2.08816   0.00121   0.00049  -0.00235  -0.00190   2.08626
    A9        2.08873  -0.00132   0.00015  -0.00314  -0.00303   2.08570
   A10        2.08468  -0.00019   0.00039  -0.00347  -0.00307   2.08161
   A11        2.09478   0.00007   0.00001   0.00041   0.00040   2.09519
   A12        2.10373   0.00012  -0.00039   0.00306   0.00266   2.10639
   A13        2.09788   0.00018  -0.00002   0.00028   0.00026   2.09814
   A14        2.08753  -0.00012   0.00049  -0.00397  -0.00348   2.08405
   A15        2.09778  -0.00006  -0.00048   0.00369   0.00322   2.10099
   A16        2.09540  -0.00001  -0.00017   0.00148   0.00130   2.09670
   A17        2.09390   0.00000   0.00011  -0.00095  -0.00083   2.09306
   A18        2.09389   0.00001   0.00006  -0.00053  -0.00047   2.09342
   A19        2.22293   0.00042  -0.01557   0.12846   0.10193   2.32485
   A20        1.95317   0.00132   0.01501  -0.09819  -0.09425   1.85892
   A21        2.10318  -0.00113   0.00259  -0.01030  -0.01893   2.08425
    D1       -0.00195   0.00004   0.00030  -0.00225  -0.00194  -0.00388
    D2        3.13812   0.00002   0.00057  -0.00335  -0.00277   3.13535
    D3        3.14016   0.00003   0.00032  -0.00238  -0.00206   3.13810
    D4       -0.00296   0.00001   0.00058  -0.00348  -0.00290  -0.00586
    D5        0.00094  -0.00003  -0.00070   0.00462   0.00392   0.00487
    D6       -3.14002  -0.00001  -0.00021   0.00149   0.00128  -3.13874
    D7       -3.14117  -0.00002  -0.00071   0.00475   0.00405  -3.13712
    D8        0.00106   0.00000  -0.00022   0.00162   0.00140   0.00246
    D9        0.00318  -0.00004   0.00008   0.00015   0.00022   0.00340
   D10       -3.10648  -0.00007  -0.00319   0.02005   0.01688  -3.08961
   D11       -3.13690  -0.00002  -0.00018   0.00124   0.00105  -3.13585
   D12        0.03662  -0.00004  -0.00345   0.02114   0.01770   0.05433
   D13       -0.00338   0.00002  -0.00008  -0.00040  -0.00047  -0.00385
   D14        3.13670  -0.00002   0.00033  -0.00256  -0.00223   3.13447
   D15        3.10628   0.00009   0.00320  -0.02030  -0.01710   3.08917
   D16       -0.03684   0.00005   0.00360  -0.02245  -0.01885  -0.05569
   D17        1.58759  -0.00376  -0.01756  -0.15441  -0.17108   1.41652
   D18       -1.64965   0.00363   0.03351   0.08622   0.11888  -1.53076
   D19       -1.52239  -0.00381  -0.02078  -0.13486  -0.15480  -1.67718
   D20        1.52356   0.00357   0.03029   0.10577   0.13516   1.65872
   D21        0.00234  -0.00000  -0.00031   0.00276   0.00244   0.00478
   D22       -3.13992  -0.00001  -0.00033   0.00273   0.00240  -3.13752
   D23       -3.13773   0.00004  -0.00072   0.00493   0.00421  -3.13352
   D24        0.00320   0.00003  -0.00073   0.00490   0.00417   0.00737
   D25       -0.00114   0.00001   0.00070  -0.00488  -0.00418  -0.00532
   D26        3.13982  -0.00001   0.00021  -0.00175  -0.00153   3.13829
   D27        3.14112   0.00002   0.00072  -0.00485  -0.00414   3.13698
[...]
 ! D5    D(2,1,6,5)             -0.002          -DE/DX =    0.0                 !
 ! D6    D(2,1,6,11)           180.002          -DE/DX =    0.0                 !
 ! D7    D(7,1,6,5)            180.0058         -DE/DX =    0.0                 !
 ! D8    D(7,1,6,11)             0.0098         -DE/DX =    0.0                 !
 ! D9    D(1,2,3,4)              0.0068         -DE/DX =    0.0                 !
 ! D10   D(1,2,3,12)          -180.0056         -DE/DX =    0.0                 !
 ! D11   D(8,2,3,4)           -179.9902         -DE/DX =    0.0                 !
 ! D12   D(8,2,3,12)            -0.0026         -DE/DX =    0.0                 !
 ! D13   D(2,3,4,5)             -0.0104         -DE/DX =    0.0                 !
 ! D14   D(2,3,4,9)           -179.9982         -DE/DX =    0.0                 !
 ! D15   D(12,3,4,5)           180.003          -DE/DX =    0.0                 !
 ! D16   D(12,3,4,9)             0.0152         -DE/DX =    0.0                 !
 ! D17   D(2,3,12,13)           -0.0082         -DE/DX =    0.0                 !
 ! D18   D(2,3,12,14)         -180.0054         -DE/DX =    0.0                 !
 ! D19   D(4,3,12,13)         -180.0212         -DE/DX =    0.0                 !
 ! D20   D(4,3,12,14)           -0.0184         -DE/DX =    0.0                 !
 ! D21   D(3,4,5,6)              0.0078         -DE/DX =    0.0                 !
 ! D22   D(3,4,5,10)          -179.9991         -DE/DX =    0.0                 !
 ! D23   D(9,4,5,6)            179.9955         -DE/DX =    0.0                 !
 ! D24   D(9,4,5,10)            -0.0114         -DE/DX =    0.0                 !
 ! D25   D(4,5,6,1)             -0.0016         -DE/DX =    0.0                 !
 ! D26   D(4,5,6,11)           179.9944         -DE/DX =    0.0                 !
 ! D27   D(10,5,6,1)           180.0053         -DE/DX =    0.0                 !
 ! D28   D(10,5,6,11)            0.0013         -DE/DX =    0.0                 !
 --------------------------------------------------------------------------------
 GradGradGradGradGradGradGradGradGradGradGradGradGradGradGradGradGradGrad


 ----------------------------------------------------------------------

 Electric dipole moment (input orientation):
 (Debye = 10**-18 statcoulomb cm , SI units = C m)
                  (au)            (Debye)         (10**-30 SI)
   Tot        0.163325D+01      0.415129D+01      0.138472D+02
   x         -0.163012D+01     -0.414336D+01     -0.138208D+02
   y          0.965951D-01      0.245520D+00      0.818967D+00
   z         -0.292283D-01     -0.742909D-01     -0.247808D+00

 Dipole polarizability, Alpha (input orientation).
 (esu units = cm**3 , SI units = C**2 m**2 J**-1)
 Alpha(0;0):
               (au)            (10**-24 esu)      (10**-40 SI)
   iso        0.821485D+02      0.121732D+02      0.135445D+02
   aniso      0.801381D+02      0.118752D+02      0.132130D+02
   xx         0.118959D+03      0.176278D+02      0.196136D+02
   yx         0.667790D+01      0.989563D+00      0.110104D+01
   yy         0.936961D+02      0.138843D+02      0.154484D+02
   zx         0.398520D+01      0.590546D+00      0.657071D+00
   zy         0.129165D+02      0.191402D+01      0.212964D+01
   zz         0.337909D+02      0.500730D+01      0.557137D+01

 ----------------------------------------------------------------------

 Dipole orientation:
     6         -0.33079811          0.38543183          6.46984577
     6         -0.30175202          0.49486672          3.84649231
     6          0.30565511          2.77114574          2.61995370
     6          0.88125218          4.92657095          4.04420789
     6          0.84787869          4.80147862          6.67206248
     6          0.24401111          2.53887084          7.88563843
     1         -0.80042332         -1.37349819          7.41345280
     1         -0.74124671         -1.15205551          2.71122915
     1          1.34846738          6.67769919          3.09594802
     1          1.29409544          6.47252652          7.77310342
     1          0.22103705          2.45207789          9.93517894
     6          0.28852449          2.70664131         -0.17583319
     8         -0.18851846          0.91765006         -1.46496536
    17          1.08704581          5.70028473         -1.72164991

 Electric dipole moment (dipole orientation):
 (Debye = 10**-18 statcoulomb cm , SI units = C m)
                  (au)            (Debye)         (10**-30 SI)
   Tot        0.163325D+01      0.415129D+01      0.138472D+02
   x          0.000000D+00      0.000000D+00      0.000000D+00
   y          0.000000D+00      0.000000D+00      0.000000D+00
   z          0.163325D+01      0.415129D+01      0.138472D+02

 Dipole polarizability, Alpha (dipole orientation).
 (esu units = cm**3 , SI units = C**2 m**2 J**-1)
 Alpha(0;0):
               (au)            (10**-24 esu)      (10**-40 SI)
   iso        0.821485D+02      0.121732D+02      0.135445D+02
   aniso      0.801381D+02      0.118752D+02      0.132130D+02
   xx         0.354490D+02      0.525300D+01      0.584476D+01
   yx         0.164856D+02      0.244291D+01      0.271811D+01
   yy         0.928270D+02      0.137555D+02      0.153051D+02
   zx        -0.219524D+01     -0.325301D+00     -0.361946D+00
   zy        -0.824114D+01     -0.122121D+01     -0.135878D+01
   zz         0.118170D+03      0.175109D+02      0.194835D+02

 ----------------------------------------------------------------------
 Unable to Open any file for archive entry.
 1\1\GINC-NODE1326\Freq\RB3LYP\6-31G(d,p)\C7H5Cl1O1\XIAOYUY\04-May-2023
 \0\\#N Geom=AllCheck Guess=TCheck SCRF=Check GenChk RB3LYP/6-31G(d,p) 
 Freq\\Title Card Required\\0,1\C,-3.4023841041,0.3952015328,-0.2480491
 23\C,-2.0135575698,0.3717260783,-0.211289628\C,-1.2979483636,1.5529232
 287,0.0498965116\C,-1.9860004498,2.7523455848,0.2729608449\C,-3.377669
 5103,2.7675682261,0.2343631735\C,-4.0860242915,1.5932867023,-0.0252586
 113\H,-3.953148501,-0.5176739671,-0.449975707\H,-1.4629993767,-0.54619
 29386,-0.3811207794\H,-1.4330084449,3.6608849902,0.4739027785\H,-3.909
 4363222,3.6973512711,0.4073137047\H,-5.1711082317,1.6109355012,-0.0540
 856483\C,0.1767694988,1.4308654821,0.0693437973\O,0.8043621624,0.43202
 45946,-0.1144155575\Cl,1.0823777745,2.9864096633,0.412042074\\Version=
 ES64L-G16RevC.01\State=1-A\HF=-805.22104\RMSD=4.732e-09\RMSF=3.000e-05
 \ZeroPoint=0.1012824\Thermal=0.1086355\ETot=-805.1124044\HTot=-805.111
 4603\GTot=-805.15285\Dipole=-1.6301241,0.0965951,-0.0292283\DipoleDeri
 v=-0.1483988,0.2100457,0.0415096,0.1675476,0.0265683,0.0327596,0.03292
 82,0.0341123,-0.1021666,0.1148998,-0.1810251,-0.0314995,0.183934,0.033
 1527,0.0245858,0.0425723,0.0136236,-0.0568531,-0.7763215,-0.0148169,-0
 .02585,-0.1958752,-0.1582108,-0.0353282,-0.0625236,-0.0298926,-0.02082
 7,0.150458,0.1339613,0.033471,-0.1338376,-0.031939,0.0015175,-0.020916
 4,0.0094211,-0.0577925,-0.168143,-0.2032427,-0.0429732,-0.2069453,0.05
 77273,0.0281398,-0.0437466,0.0283162,-0.106879,0.1649351,-0.0060636,0.
 0056553,0.0029212,0.0663182,0.0268055,0.0074263,0.026508,-0.0596661,0.
 0097898,-0.0674598,-0.0168393,-0.0690169,-0.0376659,-0.0330194,-0.0171
 813,-0.0330054,0.107565,0.0825505,0.0685378,0.012993,0.0318218,0.03090
 7,-0.0157958,0.0055434,-0.0146789,0.1105641,0.0885462,-0.0487667,-0.01
 0611,-0.0470296,0.0317239,-0.0177422,-0.0102336,-0.0177421,0.1082269,0
 .0187039,0.0541392,0.0081138,0.0718637,-0.0406946,-0.0294431,0.0117311
 ,-0.0300043,0.1091425,-0.0907866,0.0012663,-0.0057157,0.0018778,0.0733
 389,-0.0071614,-0.0055695,-0.0071816,0.107269,2.0484737,0.1677439,0.08
 66091,0.6706593,1.8184829,0.329621,0.1886079,0.3145918,0.3617406,-0.87
 34051,0.3002931,0.0430721,0.1320184,-1.0716338,-0.1571113,0.0089505,-0
 .1520566,-0.3081092,-0.6213022,-0.4146123,-0.0979351,-0.6099393,-0.798
 0752,-0.1478276,-0.1375884,-0.1420116,-0.1922148\Polar=118.9586098,6.6
 779047,93.6960797,3.9852012,12.9164794,33.7909095\Quadrupole=-0.325564
 7,1.8294537,-1.503889,1.2333384,0.2899483,0.7469724\PG=C01 [X(C7H5Cl1O
 1)]\NImag=0\\0.69948599,0.03261350,0.70293421,0.02363549,0.11708654,0.
 15566224,-0.35432184,-0.02994145,-0.01482622,0.71474614,0.03545737,-0.
 12720068,-0.01220207,-0.04866467,0.68998968,-0.00154745,-0.01415394,-0
 .06481019,0.00736789,0.11052210,0.16102834,-0.03322811,-0.02243815,-0.
 00579721,-0.15702357,-0.10067125,-0.02320605,0.61241356,-0.06805048,0.
 03107463,0.00259237,-0.05146225,-0.26214357,-0.04166027,-0.02656062,0.
 68374821,-0.01506030,0.00395480,0.00864437,-0.01321300,-0.04313396,-0.
 07364665,0.00881837,0.11011123,0.16012988,-0.05021935,0.02698530,0.004
 18329,0.06046147,0.01974011,0.00556533,-0.15853164,0.05495419,0.008289
 90,0.70424796,0.02906711,-0.01707698,-0.00119726,-0.02224282,-0.054240
 29,-0.01338274,0.10435612,-0.27762526,-0.04061117,0.03830515,0.7010858
 7,0.00460709,-0.00126162,-0.00701157,-0.00296109,-0.01212421,0.0058321
 6,0.01832365,-0.04209097,-0.07031945,0.02470917,0.11551155,0.16203214,
 0.06696015,-0.02374340,-0.00304579,-0.05114531,-0.02815297,-0.00704582
 ,-0.03064106,0.07028621,0.01311237,-0.34726771,-0.02850174,-0.01432264
 ,0.69348038,0.02080602,-0.05413425,-0.01192465,-0.02573327,-0.01589296
 ,-0.00264925,0.02492762,0.02838668,0.00487047,0.03712298,-0.12702468,-
 0.01204488,-0.03640404,0.70810070,0.00599934,-0.01325732,0.00514545,-0
 .00655787,-0.00272230,-0.00738446,0.00390640,0.00622653,0.00946804,-0.
 00099868,-0.01400879,-0.06511761,0.00942946,0.11608855,0.15495693,-0.1
 7943956,0.12001940,0.02085129,-0.02640932,0.03102214,0.00530870,-0.001
 16861,-0.00089642,0.00002956,-0.02819385,-0.02925596,-0.00698500,-0.18
 432500,-0.12220298,-0.02847364,0.74693307,0.05339435,-0.28161235,-0.04
 301059,0.07697142,0.03139006,0.00732834,-0.00108896,-0.06028714,-0.010
 60420,-0.07566390,0.03430196,0.00332559,-0.05561396,-0.27819586,-0.045
 56856,-0.00308879,0.65127947,0.00732547,-0.04101662,-0.07001685,0.0146
 3984,0.00595472,0.00827081,-0.00001036,-0.01059672,-0.01037860,-0.0164
 1020,0.00471175,0.00724447,-0.01495124,-0.04755954,-0.07207489,0.01758
 530,0.10418176,0.15941210,-0.13201309,-0.12030007,-0.02728930,-0.01179
 043,-0.02829158,-0.00617947,-0.00512273,0.00166863,-0.00003955,-0.0008
 0436,0.00089214,0.00017098,-0.00118765,0.00306714,0.00038192,0.0120411
 8,0.01486437,0.00329698,0.13688199,-0.12025803,-0.25859800,-0.04866927
 ,0.00238911,0.00451804,0.00043734,0.00067117,0.00178013,-0.00114244,0.
 00095526,0.00012858,0.00014884,0.00404204,-0.00259200,-0.00179789,-0.0
 1611838,-0.01767097,-0.00462708,0.12908550,0.27189273,-0.02728442,-0.0
 4867511,-0.04741796,0.00005385,-0.00047887,0.00262027,-0.00024094,-0.0
 0111268,0.00726892,0.00018335,0.00014708,-0.00042774,0.00057973,-0.001
 82587,0.00650136,-0.00299394,-0.00369736,0.00189691,0.02954232,0.05382
 552,0.03774003,-0.00961078,0.02694156,0.00505382,-0.13120617,0.1242837
 7,0.02246300,0.01183697,-0.01336461,-0.00245922,-0.00171854,-0.0030086
 2,-0.00083017,-0.00079011,-0.00084950,-0.00017652,-0.00530107,-0.00115
 680,-0.00062462,0.00111096,-0.00024530,0.00011088,0.13653618,-0.002491
 79,0.00525188,0.00012457,0.12200309,-0.26588396,-0.04243485,0.01384423
 ,-0.01842896,-0.00400622,-0.00416853,-0.00229436,-0.00172997,-0.000532
 67,0.00030475,0.00017876,-0.00079961,0.00146905,-0.00129306,0.00021469
 ,0.00052192,0.00097639,-0.13182413,0.27968951,-0.00091928,0.00100370,0
 .00444732,0.02199671,-0.04236510,-0.04677074,0.00306499,-0.00481969,0.
 00245644,-0.00106568,-0.00169662,0.00524096,-0.00011217,0.00016912,-0.
 00062382,-0.00055179,-0.00130434,0.00744236,0.00020447,0.00096349,-0.0
 0405574,-0.02347108,0.04740357,0.03562940,-0.00076843,0.00078300,0.000
 15378,-0.00163266,0.00338874,0.00047129,0.01196294,0.01191301,0.002680
 36,-0.13143149,-0.12362315,-0.02787772,-0.01022022,-0.02677502,-0.0058
 7504,-0.00529585,0.00135860,-0.00010677,0.00006612,-0.00009942,0.00001
 512,0.00060399,0.00086541,0.00016844,0.13987370,0.00053051,0.00029754,
 0.00019772,0.00426720,-0.00247871,-0.00151697,-0.01486977,-0.01777945,
 -0.00470523,-0.12213667,-0.26454578,-0.04957852,0.00282749,0.00593754,
 0.00038037,0.00110739,0.00139096,-0.00120827,-0.00012167,-0.00002630,0
 .00021725,-0.00087734,-0.00085484,-0.00037267,0.13259337,0.27695757,0.
 00010255,0.00020554,-0.00055292,0.00065108,-0.00154349,0.00532679,-0.0
 0275984,-0.00390897,0.00233524,-0.02757169,-0.04961687,-0.04919258,0.0
 0013202,-0.00050703,0.00438314,-0.00015886,-0.00120069,0.00725763,0.00
 001066,0.00021799,-0.00106980,-0.00018578,-0.00032064,0.00078033,0.030
 32150,0.05492856,0.03794730,-0.00132030,-0.00296956,-0.00085153,-0.000
 78412,-0.00086018,-0.00018245,-0.00531273,-0.00167920,-0.00072032,-0.0
 1135746,0.02872099,0.00541641,-0.12714931,0.11859810,0.02137990,0.0120
 0980,-0.01563849,-0.00289982,0.00049042,-0.00083489,-0.00016273,0.0000
 8701,0.00009305,0.00005465,0.00110887,-0.00022583,0.00011272,0.1318628
 4,-0.00396301,-0.00236628,-0.00201789,-0.00093340,0.00015250,0.0001085
 7,-0.00038321,0.00183135,-0.00113312,-0.00207426,0.00378299,0.00017751
 ,0.11875111,-0.26639346,-0.04311954,0.01539998,-0.01775428,-0.00371004
 ,0.00080679,-0.00093945,-0.00022066,0.00008492,-0.00003560,0.00022068,
 0.00018467,0.00055969,0.00097108,-0.12732325,0.28022396,-0.00105267,-0
 .00198746,0.00654990,-0.00019762,0.00011055,-0.00050300,-0.00045710,-0
 .00117149,0.00710154,-0.00084007,0.00110017,0.00280218,0.02141392,-0.0
 4312720,-0.04473033,0.00340328,-0.00463679,0.00194075,0.00017037,-0.00
 026983,0.00021714,0.00005304,0.00022079,-0.00106318,0.00019584,0.00095
 835,-0.00399397,-0.02269262,0.04783892,0.03498016,-0.01068760,-0.00263
 279,-0.00097414,0.00047568,0.00299926,0.00040930,0.00090504,-0.0000853
 0,0.00001903,0.00039304,-0.00297366,-0.00081015,-0.01127091,0.00311507
 ,0.00017355,-0.34059312,0.00469192,-0.00805179,0.00079768,0.00012618,0
 .00016267,-0.00053473,-0.00024253,-0.00006000,-0.00056048,0.00026030,0
 .00004023,0.00081640,-0.00017501,0.00010511,0.36047217,0.02810225,0.00
 463482,0.00096469,0.00237561,-0.00444297,-0.00228508,-0.00005824,-0.00
 132423,-0.00020693,-0.00234347,-0.00417430,-0.00240115,-0.02763829,0.0
 0540235,-0.00055838,0.00471318,-0.05985756,-0.00405597,-0.00046991,0.0
 0079704,0.00091725,0.00130470,0.00014809,0.00010460,-0.00128202,0.0001
 9434,0.00002944,0.00040631,0.00078099,0.00096158,-0.00510600,0.0577675
 1,0.00526437,0.00004712,0.00418677,0.00028239,-0.00226652,0.00671106,0
 .00002461,-0.00020785,-0.00035555,-0.00068253,-0.00242081,0.00679622,-
 0.00607150,0.00036112,0.00397302,-0.00804474,-0.00405807,-0.04025078,0
 .00004207,0.00093552,-0.00359889,0.00025423,0.00005831,-0.00015513,-0.
 00027302,0.00007579,-0.00013324,0.00022341,0.00094454,-0.00369639,0.00
 895417,0.00628534,0.02760361,0.00619643,-0.00564702,-0.00116795,-0.038
 27579,-0.01954357,-0.00515087,-0.19401665,0.00395986,-0.00296845,-0.02
 656885,0.01712087,0.00275849,0.00707525,0.00493431,0.00097919,0.000405
 12,-0.00002740,0.00003167,0.00038566,0.00045459,0.00008513,0.00078242,
 0.00280207,0.00069726,0.00228573,-0.00228830,-0.00027309,0.00056908,-0
 .00060992,-0.00013060,0.00009660,-0.00000507,0.00004322,0.61533354,-0.
 00704468,-0.00372196,-0.00236174,-0.01975310,0.00991246,0.00116299,-0.
 00332810,-0.08997551,-0.00453058,0.03029176,0.00687004,0.00285062,0.00
 364338,-0.00650741,-0.00280862,0.00105772,-0.00449107,-0.00071329,-0.0
 0119598,0.00014203,-0.00013599,-0.00340380,-0.00366890,-0.00013407,0.0
 0220025,-0.00234936,0.00041869,0.00198462,0.00005972,-0.00008917,0.000
 12826,-0.00042443,0.00019950,-0.31737862,0.70527275,-0.00144972,-0.002
 31883,0.00635859,-0.00519529,0.00116904,0.00134888,-0.00445450,-0.0043
 1170,-0.06917043,0.00543972,0.00245525,-0.00203774,0.00071613,-0.00277
 092,0.00731940,0.00025061,-0.00074554,-0.00096545,-0.00024999,-0.00008
 684,0.00061098,-0.00056229,0.00005183,-0.00351512,0.00063656,0.0002840
 0,-0.00400875,0.00039649,-0.00016666,0.00076843,0.00007043,0.00019567,
 -0.00134678,-0.05065339,0.10149825,0.17702009,0.00017392,0.00156932,0.
 00034640,0.00037854,0.00477950,0.00097414,-0.03877000,0.04596296,0.007
 57480,-0.00146588,-0.00801296,-0.00177954,-0.00355989,0.00039665,0.000
 02634,-0.00021112,0.00159416,0.00031355,-0.00019879,-0.00017663,-0.000
 04136,-0.00225454,0.00020417,-0.00002400,-0.00004118,0.00032809,0.0000
 4514,-0.00085033,0.00009555,0.00000624,-0.00015519,0.00003919,-0.00000
 423,-0.30761330,0.31562818,0.05665668,0.33087108,0.00249062,0.00055761
 ,0.00033746,-0.00814115,-0.00777869,-0.00186707,0.03511774,-0.00732421
 ,-0.00440404,-0.00326751,0.00431701,0.00004991,0.00184584,0.00162213,0
 .00073407,-0.00093219,0.00015451,-0.00002132,0.00026164,0.00004850,0.0
 0002185,0.00074517,0.00312719,0.00067349,-0.00127294,0.00067136,-0.000
 03645,0.00010920,-0.00003304,0.00007886,-0.00005268,0.00030480,0.00000
 927,0.34654134,-0.58300873,-0.09521204,-0.36264027,0.66517734,0.000532
 49,0.00031049,-0.00066142,-0.00164659,-0.00147931,-0.00013236,0.005376
 38,-0.00407771,0.01891446,-0.00081655,-0.00009426,0.00354881,0.0003198
 8,0.00069219,-0.00157497,-0.00019896,0.00005385,0.00012780,0.00004770,
 0.00000867,-0.00001701,0.00008603,0.00065707,0.00005540,-0.00027915,0.
 00001112,0.00065889,0.00000867,0.00007843,-0.00038894,-0.00002289,0.00
 001188,0.00025365,0.06292535,-0.09614011,-0.07993165,-0.06444540,0.118
 49603,0.04941399,-0.00120742,-0.00123962,-0.00027194,-0.00347261,0.004
 51332,0.00075244,-0.01330341,-0.02664598,-0.00606356,-0.00754334,-0.00
 084346,-0.00041950,0.00004139,-0.00100307,-0.00019434,-0.00045167,-0.0
 0059653,-0.00013801,-0.00065697,0.00000879,-0.00000966,0.00045841,0.00
 003254,0.00001748,-0.00595104,-0.00139477,-0.00046664,-0.00017017,0.00
 013904,0.00002286,-0.00015457,-0.00003824,-0.00001247,-0.06665523,-0.0
 0282988,-0.00160145,0.02369667,-0.01080480,-0.00188696,0.07536996,-0.0
 0065373,-0.00004020,0.00008014,-0.00113431,0.00409909,0.00039083,-0.00
 951857,-0.01193265,-0.00445861,0.00129959,-0.00350479,-0.00083269,-0.0
 0080900,0.00098649,0.00023312,-0.00002548,-0.00011677,-0.00004634,-0.0
 0048170,-0.00000225,0.00004122,0.00136997,0.00065425,0.00015385,-0.000
 23451,0.00202543,0.00036285,-0.00038085,0.00013091,0.00001272,-0.00005
 302,0.00019356,0.00003672,-0.03031314,-0.02810963,-0.00004152,0.000232
 07,-0.07783577,-0.01852835,0.04070266,0.11345232,-0.00015298,0.0000627
 1,-0.00052372,-0.00039409,0.00055942,0.00210909,-0.00258841,-0.0049720
 6,0.00755179,0.00001463,-0.00089728,0.00060976,-0.00015435,0.00022790,
 -0.00024126,-0.00002182,-0.00006340,0.00009374,-0.00010916,0.00005599,
 -0.00026846,0.00028867,0.00011346,0.00013152,-0.00023118,0.00032849,0.
 00026193,-0.00008278,0.00002819,0.00001571,-0.00001553,0.00003706,0.00
 001243,-0.00717598,0.00078351,-0.03245044,0.00035123,-0.01886004,0.009
 73336,0.01027175,0.02259604,0.01296454\\0.00007052,-0.00001436,0.00001
 057,-0.00010476,-0.00005085,-0.00001419,0.00003499,0.00008018,-0.00000
 134,0.00003978,-0.00004565,0.00001782,-0.00003818,-0.00001257,-0.00001
 674,-0.00000537,0.00003983,0.00000401,-0.00000888,-0.00000462,-0.00000
 797,0.00001659,0.00000278,0.00000526,0.00000401,0.00001076,-0.00000342
 ,-0.00000106,0.00000314,0.00000331,-0.00000279,-0.00000158,0.00000305,
 0.00002213,0.00002557,0.00000165,0.00000735,-0.00001877,0.00000039,-0.
 00003434,-0.00001386,-0.00000240\\\@
 The archive entry for this job was punched.


 The juvenile sea squirt wanders through the sea searching
 for a suitable rock or hunk of coral to cling to and make
 its home for life.  For this task it has a rudimentary
 nervous system.  When it finds its spot and takes root, it
 doesn't need its brain any more so it eats it.
 It's rather like getting tenure.

                               -- source unknown
 Job cpu time:       0 days  0 hours  3 minutes 43.9 seconds.
 Elapsed time:       0 days  0 hours  3 minutes 44.2 seconds.
 File lengths (MBytes):  RWF=     52 Int=      0 D2E=      0 Chk=      3 Scr=      1
 Normal termination of Gaussian 16 at Thu May  4 16:47:43 2023.
