 Entering Gaussian System, Link 0=g16
 Input=Bfre1-114.gjf
 Output=Bfre1-114.log
 Initial command:
 /home/g16/l1.exe "/home/pub16/lsh/Gau-1166286.inp" -scrdir="/home/pub16/lsh/"
 Entering Link 1 = /home/g16/l1.exe PID=   1166287.
  
 Copyright (c) 1988,1990,1992,1993,1995,1998,2003,2009,2016,
            Gaussian, Inc.  All Rights Reserved.
  
 This is part of the Gaussian(R) 16 program.  It is based on
 the Gaussian(R) 09 system (copyright 2009, Gaussian, Inc.),
 the Gaussian(R) 03 system (copyright 2003, Gaussian, Inc.),
 the Gaussian(R) 98 system (copyright 1998, Gaussian, Inc.),
 the Gaussian(R) 94 system (copyright 1995, Gaussian, Inc.),
 the Gaussian 92(TM) system (copyright 1992, Gaussian, Inc.),
 the Gaussian 90(TM) system (copyright 1990, Gaussian, Inc.),
 the Gaussian 88(TM) system (copyright 1988, Gaussian, Inc.),
 the Gaussian 86(TM) system (copyright 1986, Carnegie Mellon
 University), and the Gaussian 82(TM) system (copyright 1983,
 Carnegie Mellon University). Gaussian is a federally registered
 trademark of Gaussian, Inc.
  
 This software contains proprietary and confidential information,
 including trade secrets, belonging to Gaussian, Inc.
  
 This software is provided under written license and may be
 used, copied, transmitted, or stored only in accord with that
 written license.
  
 The following legend is applicable only to US Government
 contracts under FAR:
  
                    RESTRICTED RIGHTS LEGEND
  
 Use, reproduction and disclosure by the US Government is
 subject to restrictions as set forth in subparagraphs (a)
 and (c) of the Commercial Computer Software - Restricted
 Rights clause in FAR 52.227-19.
  
 Gaussian, Inc.
 340 Quinnipiac St., Bldg. 40, Wallingford CT 06492
  
  
 ---------------------------------------------------------------
 Warning -- This program may not be used in any manner that
 competes with the business of Gaussian, Inc. or will provide
 assistance to any competitor of Gaussian, Inc.  The licensee
 of this program is prohibited from giving any competitor of
 Gaussian, Inc. access to this program.  By using this program,
 the user acknowledges that Gaussian, Inc. is engaged in the
 business of creating and licensing software in the field of
 computational chemistry and represents and warrants to the
 licensee that it is not a competitor of Gaussian, Inc. and that
 it will not use this program in any manner prohibited above.
 ---------------------------------------------------------------
  

 Cite this work as:
 Gaussian 16, Revision A.03,
 M. J. Frisch, G. W. Trucks, H. B. Schlegel, G. E. Scuseria, 
 M. A. Robb, J. R. Cheeseman, G. Scalmani, V. Barone, 
 G. A. Petersson, H. Nakatsuji, X. Li, M. Caricato, A. V. Marenich, 
 J. Bloino, B. G. Janesko, R. Gomperts, B. Mennucci, H. P. Hratchian, 
 J. V. Ortiz, A. F. Izmaylov, J. L. Sonnenberg, D. Williams-Young, 
 F. Ding, F. Lipparini, F. Egidi, J. Goings, B. Peng, A. Petrone, 
 T. Henderson, D. Ranasinghe, V. G. Zakrzewski, J. Gao, N. Rega, 
 G. Zheng, W. Liang, M. Hada, M. Ehara, K. Toyota, R. Fukuda, 
 J. Hasegawa, M. Ishida, T. Nakajima, Y. Honda, O. Kitao, H. Nakai, 
 T. Vreven, K. Throssell, J. A. Montgomery, Jr., J. E. Peralta, 
 F. Ogliaro, M. J. Bearpark, J. J. Heyd, E. N. Brothers, K. N. Kudin, 
 V. N. Staroverov, T. A. Keith, R. Kobayashi, J. Normand, 
 K. Raghavachari, A. P. Rendell, J. C. Burant, S. S. Iyengar, 
 J. Tomasi, M. Cossi, J. M. Millam, M. Klene, C. Adamo, R. Cammi, 
 J. W. Ochterski, R. L. Martin, K. Morokuma, O. Farkas, 
 J. B. Foresman, and D. J. Fox, Gaussian, Inc., Wallingford CT, 2016.
 
 ******************************************
 Gaussian 16:  ES64L-G16RevA.03 25-Dec-2016
                13-Sep-2023 
 ******************************************
 %mem=16000MB
 %nprocshared=20
 Will use up to   20 processors via shared memory.
 ---------------------------------------------
 # opt(calcall) freq b3lyp/6-31g(d,p) em=gd3bj
 ---------------------------------------------
 1/10=4,18=20,19=15,26=3,38=1/1,3;
 2/9=110,12=2,17=6,18=5,40=1/2;
 3/5=1,6=6,7=101,11=2,25=1,30=1,71=2,74=-5,124=41,140=1/1,2,3;
 4//1;
 5/5=2,38=5/2;
 8/6=4,10=90,11=11/1;
 11/6=1,8=1,9=11,15=111,16=1/1,2,10;
 10/6=1/2;
 6/7=2,8=2,9=2,10=2,18=1,28=1/1;
 7/10=1,25=1/1,2,3,16;
 1/10=4,18=20,19=15,26=3/3(3);
 2/9=110/2;
 7/8=1,9=1,25=1,44=-1/16;
 99//99;
 2/9=110/2;
 3/5=1,6=6,7=101,11=2,25=1,30=1,71=2,74=-5,124=41,140=1/1,2,3;
 4/5=5,16=3,69=1/1;
 5/5=2,38=5/2;
 8/6=4,10=90,11=11/1;
 11/6=1,8=1,9=11,15=111,16=1/1,2,10;
 10/6=1/2;
 7/10=1,25=1/1,2,3,16;
 1/10=4,18=20,19=15,26=3/3(-8);
 2/9=110/2;
 6/7=2,8=2,9=2,10=2,18=1,19=2,28=1/1;
 7/8=1,9=1,25=1,44=-1/16;
 99//99;
 -------------------
 Title Card Required
 -------------------
 Symbolic Z-matrix:
 Charge =  0 Multiplicity = 1
 C                     3.84521  -0.77601  -0.00001 
 C                     3.84524   0.77595   0.00003 
 H                     4.32666  -1.19707   0.8879 
 H                     4.32667  -1.19703  -0.88794 
 H                     4.32671   1.19695   0.88796 
 H                     4.32672   1.19699  -0.88788 
 B                     1.71013   0.00001  -0.00001 
 O                     2.45792   1.14888   0.00003 
 O                     2.45788  -1.14888  -0.00003 
 C                     0.15744   0.00003  -0.00001 
 C                    -0.56007  -1.20774   0.00001 
 C                    -0.56006   1.20779  -0.00002 
 C                    -1.94969  -1.2176    0.00001 
 H                    -0.01633  -2.14694   0.00003 
 C                    -1.9497    1.21765  -0.00002 
 H                    -0.01635   2.147    -0.00004 
 C                    -2.64984   0.00003   0. 
 H                    -2.5011   -2.15126   0.00003 
 H                    -2.50109   2.15133  -0.00003 
 C                    -4.08289  -0.00001   0. 
 N                    -5.24612  -0.00007   0.00001 
 

 GradGradGradGradGradGradGradGradGradGradGradGradGradGradGradGradGradGrad
 Berny optimization.
 Initialization pass.
                           ----------------------------
                           !    Initial Parameters    !
                           ! (Angstroms and Degrees)  !
 --------------------------                            --------------------------
 ! Name  Definition              Value          Derivative Info.                !
 --------------------------------------------------------------------------------
 ! R1    R(1,2)                  1.552          calculate D2E/DX2 analytically  !
 ! R2    R(1,3)                  1.0943         calculate D2E/DX2 analytically  !
 ! R3    R(1,4)                  1.0943         calculate D2E/DX2 analytically  !
 ! R4    R(1,9)                  1.4366         calculate D2E/DX2 analytically  !
 ! R5    R(2,5)                  1.0943         calculate D2E/DX2 analytically  !
 ! R6    R(2,6)                  1.0943         calculate D2E/DX2 analytically  !
 ! R7    R(2,8)                  1.4366         calculate D2E/DX2 analytically  !
 ! R8    R(7,8)                  1.3708         calculate D2E/DX2 analytically  !
 ! R9    R(7,9)                  1.3708         calculate D2E/DX2 analytically  !
 ! R10   R(7,10)                 1.5527         calculate D2E/DX2 analytically  !
 ! R11   R(10,11)                1.4048         calculate D2E/DX2 analytically  !
 ! R12   R(10,12)                1.4048         calculate D2E/DX2 analytically  !
 ! R13   R(11,13)                1.3897         calculate D2E/DX2 analytically  !
 ! R14   R(11,14)                1.0852         calculate D2E/DX2 analytically  !
 ! R15   R(12,15)                1.3897         calculate D2E/DX2 analytically  !
 ! R16   R(12,16)                1.0852         calculate D2E/DX2 analytically  !
 ! R17   R(13,17)                1.4046         calculate D2E/DX2 analytically  !
 ! R18   R(13,18)                1.0843         calculate D2E/DX2 analytically  !
 ! R19   R(15,17)                1.4046         calculate D2E/DX2 analytically  !
 ! R20   R(15,19)                1.0843         calculate D2E/DX2 analytically  !
 ! R21   R(17,20)                1.433          calculate D2E/DX2 analytically  !
 ! R22   R(20,21)                1.1632         calculate D2E/DX2 analytically  !
 ! A1    A(2,1,3)              112.6281         calculate D2E/DX2 analytically  !
 ! A2    A(2,1,4)              112.6281         calculate D2E/DX2 analytically  !
 ! A3    A(2,1,9)              105.0449         calculate D2E/DX2 analytically  !
 ! A4    A(3,1,4)              108.4676         calculate D2E/DX2 analytically  !
 ! A5    A(3,1,9)              108.9673         calculate D2E/DX2 analytically  !
 ! A6    A(4,1,9)              108.9674         calculate D2E/DX2 analytically  !
 ! A7    A(1,2,5)              112.6281         calculate D2E/DX2 analytically  !
 ! A8    A(1,2,6)              112.6281         calculate D2E/DX2 analytically  !
 ! A9    A(1,2,8)              105.0449         calculate D2E/DX2 analytically  !
 ! A10   A(5,2,6)              108.4675         calculate D2E/DX2 analytically  !
 ! A11   A(5,2,8)              108.9675         calculate D2E/DX2 analytically  !
 ! A12   A(6,2,8)              108.9674         calculate D2E/DX2 analytically  !
 ! A13   A(8,7,9)              113.8824         calculate D2E/DX2 analytically  !
 ! A14   A(8,7,10)             123.0591         calculate D2E/DX2 analytically  !
 ! A15   A(9,7,10)             123.0585         calculate D2E/DX2 analytically  !
 ! A16   A(2,8,7)              108.0139         calculate D2E/DX2 analytically  !
 ! A17   A(1,9,7)              108.0139         calculate D2E/DX2 analytically  !
 ! A18   A(7,10,11)            120.7126         calculate D2E/DX2 analytically  !
 ! A19   A(7,10,12)            120.7145         calculate D2E/DX2 analytically  !
 ! A20   A(11,10,12)           118.5729         calculate D2E/DX2 analytically  !
 ! A21   A(10,11,13)           121.1198         calculate D2E/DX2 analytically  !
 ! A22   A(10,11,14)           119.2182         calculate D2E/DX2 analytically  !
 ! A23   A(13,11,14)           119.662          calculate D2E/DX2 analytically  !
 ! A24   A(10,12,15)           121.1201         calculate D2E/DX2 analytically  !
 ! A25   A(10,12,16)           119.2197         calculate D2E/DX2 analytically  !
 ! A26   A(15,12,16)           119.6602         calculate D2E/DX2 analytically  !
 ! A27   A(11,13,17)           119.4929         calculate D2E/DX2 analytically  !
 ! A28   A(11,13,18)           120.9721         calculate D2E/DX2 analytically  !
 ! A29   A(17,13,18)           119.535          calculate D2E/DX2 analytically  !
 ! A30   A(12,15,17)           119.4929         calculate D2E/DX2 analytically  !
 ! A31   A(12,15,19)           120.9702         calculate D2E/DX2 analytically  !
 ! A32   A(17,15,19)           119.5369         calculate D2E/DX2 analytically  !
 ! A33   A(13,17,15)           120.2014         calculate D2E/DX2 analytically  !
 ! A34   A(13,17,20)           119.8975         calculate D2E/DX2 analytically  !
 ! A35   A(15,17,20)           119.9011         calculate D2E/DX2 analytically  !
 ! A36   L(17,20,21,18,-1)     179.9991         calculate D2E/DX2 analytically  !
 ! A37   L(17,20,21,18,-2)     179.9998         calculate D2E/DX2 analytically  !
 ! D1    D(3,1,2,5)              0.0002         calculate D2E/DX2 analytically  !
 ! D2    D(3,1,2,6)            123.063          calculate D2E/DX2 analytically  !
 ! D3    D(3,1,2,8)           -118.4684         calculate D2E/DX2 analytically  !
 ! D4    D(4,1,2,5)           -123.0626         calculate D2E/DX2 analytically  !
 ! D5    D(4,1,2,6)              0.0002         calculate D2E/DX2 analytically  !
 ! D6    D(4,1,2,8)            118.4687         calculate D2E/DX2 analytically  !
 ! D7    D(9,1,2,5)            118.4688         calculate D2E/DX2 analytically  !
 ! D8    D(9,1,2,6)           -118.4684         calculate D2E/DX2 analytically  !
 ! D9    D(9,1,2,8)              0.0001         calculate D2E/DX2 analytically  !
 ! D10   D(2,1,9,7)              0.0001         calculate D2E/DX2 analytically  !
 ! D11   D(3,1,9,7)            120.9079         calculate D2E/DX2 analytically  !
 ! D12   D(4,1,9,7)           -120.9078         calculate D2E/DX2 analytically  !
 ! D13   D(1,2,8,7)             -0.0002         calculate D2E/DX2 analytically  !
 ! D14   D(5,2,8,7)           -120.9081         calculate D2E/DX2 analytically  !
 ! D15   D(6,2,8,7)            120.9076         calculate D2E/DX2 analytically  !
 ! D16   D(9,7,8,2)              0.0003         calculate D2E/DX2 analytically  !
 ! D17   D(10,7,8,2)           179.9995         calculate D2E/DX2 analytically  !
 ! D18   D(8,7,9,1)             -0.0003         calculate D2E/DX2 analytically  !
 ! D19   D(10,7,9,1)          -179.9995         calculate D2E/DX2 analytically  !
 ! D20   D(8,7,10,11)         -179.9973         calculate D2E/DX2 analytically  !
 ! D21   D(8,7,10,12)            0.0027         calculate D2E/DX2 analytically  !
 ! D22   D(9,7,10,11)            0.0018         calculate D2E/DX2 analytically  !
 ! D23   D(9,7,10,12)         -179.9982         calculate D2E/DX2 analytically  !
 ! D24   D(7,10,11,13)        -180.0            calculate D2E/DX2 analytically  !
 ! D25   D(7,10,11,14)           0.0003         calculate D2E/DX2 analytically  !
 ! D26   D(12,10,11,13)          0.0            calculate D2E/DX2 analytically  !
 ! D27   D(12,10,11,14)       -179.9998         calculate D2E/DX2 analytically  !
 ! D28   D(7,10,12,15)        -179.9998         calculate D2E/DX2 analytically  !
 ! D29   D(7,10,12,16)           0.0001         calculate D2E/DX2 analytically  !
 ! D30   D(11,10,12,15)          0.0002         calculate D2E/DX2 analytically  !
 ! D31   D(11,10,12,16)       -179.9999         calculate D2E/DX2 analytically  !
 ! D32   D(10,11,13,17)         -0.0002         calculate D2E/DX2 analytically  !
 ! D33   D(10,11,13,18)        179.9999         calculate D2E/DX2 analytically  !
 ! D34   D(14,11,13,17)        179.9995         calculate D2E/DX2 analytically  !
 ! D35   D(14,11,13,18)         -0.0003         calculate D2E/DX2 analytically  !
 ! D36   D(10,12,15,17)         -0.0002         calculate D2E/DX2 analytically  !
 ! D37   D(10,12,15,19)       -179.9998         calculate D2E/DX2 analytically  !
 ! D38   D(16,12,15,17)        179.9999         calculate D2E/DX2 analytically  !
 ! D39   D(16,12,15,19)          0.0003         calculate D2E/DX2 analytically  !
 ! D40   D(11,13,17,15)          0.0003         calculate D2E/DX2 analytically  !
 ! D41   D(11,13,17,20)       -179.9999         calculate D2E/DX2 analytically  !
 ! D42   D(18,13,17,15)       -179.9999         calculate D2E/DX2 analytically  !
 ! D43   D(18,13,17,20)         -0.0001         calculate D2E/DX2 analytically  !
 ! D44   D(12,15,17,13)         -0.0001         calculate D2E/DX2 analytically  !
 ! D45   D(12,15,17,20)       -179.9999         calculate D2E/DX2 analytically  !
 ! D46   D(19,15,17,13)        179.9996         calculate D2E/DX2 analytically  !
 ! D47   D(19,15,17,20)         -0.0002         calculate D2E/DX2 analytically  !
 --------------------------------------------------------------------------------
 Trust Radius=3.00D-01 FncErr=1.00D-07 GrdErr=1.00D-06 EigMax=2.50D+02 EigMin=1.00D-04
 Number of steps in this run=    116 maximum allowed number of steps=    126.
 GradGradGradGradGradGradGradGradGradGradGradGradGradGradGradGradGradGrad

                          Input orientation:                          
 ---------------------------------------------------------------------
 Center     Atomic      Atomic             Coordinates (Angstroms)
 Number     Number       Type             X           Y           Z
 ---------------------------------------------------------------------
      1          6           0        3.845207   -0.776013   -0.000012
      2          6           0        3.845237    0.775953    0.000025
      3          1           0        4.326663   -1.197071    0.887900
      4          1           0        4.326675   -1.197029   -0.887938
      5          1           0        4.326713    1.196950    0.887955
      6          1           0        4.326719    1.196992   -0.887883
      7          5           0        1.710133    0.000012   -0.000008
      8          8           0        2.457924    1.148877    0.000028
      9          8           0        2.457879   -1.148883   -0.000029
     10          6           0        0.157441    0.000034   -0.000006
     11          6           0       -0.560067   -1.207744    0.000012
     12          6           0       -0.560061    1.207788   -0.000023
     13          6           0       -1.949689   -1.217601    0.000013
     14          1           0       -0.016326   -2.146938    0.000029
     15          6           0       -1.949703    1.217645   -0.000018
     16          1           0       -0.016350    2.147000   -0.000039
     17          6           0       -2.649841    0.000033    0.000001
     18          1           0       -2.501102   -2.151265    0.000026
     19          1           0       -2.501085    2.151328   -0.000034
     20          6           0       -4.082889   -0.000013    0.000004
     21          7           0       -5.246116   -0.000068    0.000009
 ---------------------------------------------------------------------
                    Distance matrix (angstroms):
                    1          2          3          4          5
     1  C    0.000000
     2  C    1.551966   0.000000
     3  H    1.094293   2.216510   0.000000
     4  H    1.094294   2.216511   1.775838   0.000000
     5  H    2.216510   1.094293   2.394021   2.980760   0.000000
     6  H    2.216510   1.094294   2.980762   2.394021   1.775838
     7  B    2.271730   2.271729   3.011249   3.011249   3.011251
     8  O    2.372711   1.436562   3.127934   3.127937   2.069565
     9  O    1.436562   2.372711   2.069564   2.069565   3.127937
    10  C    3.768536   3.768539   4.427623   4.427629   4.427630
    11  C    4.426379   4.831331   4.966748   4.966771   5.518298
    12  C    4.831341   4.426413   5.518317   5.518308   4.966808
    13  C    5.811697   6.128248   6.338877   6.338898   6.783194
    14  H    4.097667   4.843032   4.533444   4.533483   5.552656
    15  C    6.128267   5.811749   6.783216   6.783213   6.338953
    16  H    4.843101   4.097758   5.552748   5.552726   4.533577
    17  C    6.541246   6.541261   7.133935   7.133945   7.133960
    18  H    6.493609   6.988893   6.951056   6.951085   7.656241
    19  H    6.988902   6.493648   7.656262   7.656251   6.951128
    20  C    7.965983   7.966009   8.540601   8.540612   8.540643
    21  N    9.124376   9.124413   9.688099   9.688111   9.688155
                    6          7          8          9         10
     6  H    0.000000
     7  B    3.011246   0.000000
     8  O    2.069564   1.370796   0.000000
     9  O    3.127935   1.370797   2.297760   0.000000
    10  C    4.427631   1.552692   2.571393   2.571386   0.000000
    11  C    5.518314   2.571475   3.829090   3.018520   1.404829
    12  C    4.966793   2.571479   3.018560   3.829081   1.404806
    13  C    6.783208   3.857056   5.002726   4.408104   2.433646
    14  H    5.552684   2.755005   4.121202   2.667921   2.153993
    15  C    6.338943   3.857075   4.408163   5.002723   2.433646
    16  H    4.533545   2.755050   2.668011   4.121244   2.153988
    17  C    7.133964   4.359974   5.235371   5.235343   2.807282
    18  H    7.656262   4.728900   5.956750   5.059275   3.419932
    19  H    6.951111   4.728902   5.059316   5.956737   3.419916
    20  C    8.540648   5.793022   6.640947   6.640900   4.240330
    21  N    9.688162   6.956249   7.789243   7.789179   5.403557
                   11         12         13         14         15
    11  C    0.000000
    12  C    2.415532   0.000000
    13  C    1.389657   2.795278   0.000000
    14  H    1.085237   3.398505   2.145125   0.000000
    15  C    2.795282   1.389677   2.435246   3.880511   0.000000
    16  H    3.398520   1.085238   3.880508   4.293938   2.145123
    17  C    2.413686   2.413680   1.404580   3.397777   1.404554
    18  H    2.158205   3.879546   1.084336   2.484780   3.413736
    19  H    3.879551   2.158203   3.413755   4.964788   1.084337
    20  C    3.724096   3.724124   2.456229   4.598502   2.456252
    21  N    4.839167   4.839218   3.514088   5.653296   3.514138
                   16         17         18         19         20
    16  H    0.000000
    17  C    3.397755   0.000000
    18  H    4.964783   2.156434   0.000000
    19  H    2.484739   2.156432   4.302593   0.000000
    20  C    4.598522   1.433048   2.670194   2.670276   0.000000
    21  N    5.653349   2.596275   3.487513   3.487650   1.163227
                   21
    21  N    0.000000
 Stoichiometry    C9H8BNO2
 Framework group  C1[X(C9H8BNO2)]
 Deg. of freedom    57
 Full point group                 C1      NOp   1
 Largest Abelian subgroup         C1      NOp   1
 Largest concise Abelian subgroup C1      NOp   1
                         Standard orientation:                         
 ---------------------------------------------------------------------
 Center     Atomic      Atomic             Coordinates (Angstroms)
 Number     Number       Type             X           Y           Z
 ---------------------------------------------------------------------
      1          6           0        3.845207   -0.776013   -0.000012
      2          6           0        3.845237    0.775953    0.000025
      3          1           0        4.326663   -1.197071    0.887900
      4          1           0        4.326675   -1.197029   -0.887938
      5          1           0        4.326713    1.196950    0.887955
      6          1           0        4.326719    1.196992   -0.887883
      7          5           0        1.710133    0.000012   -0.000008
      8          8           0        2.457924    1.148877    0.000028
      9          8           0        2.457879   -1.148883   -0.000029
     10          6           0        0.157441    0.000034   -0.000006
     11          6           0       -0.560067   -1.207744    0.000012
     12          6           0       -0.560061    1.207788   -0.000023
     13          6           0       -1.949689   -1.217601    0.000013
     14          1           0       -0.016326   -2.146938    0.000029
     15          6           0       -1.949703    1.217645   -0.000018
     16          1           0       -0.016350    2.147000   -0.000039
     17          6           0       -2.649841    0.000033    0.000001
     18          1           0       -2.501102   -2.151265    0.000026
     19          1           0       -2.501085    2.151328   -0.000034
     20          6           0       -4.082889   -0.000013    0.000004
     21          7           0       -5.246116   -0.000068    0.000009
 ---------------------------------------------------------------------
 Rotational constants (GHZ):           3.2638532           0.3510359           0.3182160
 Standard basis: 6-31G(d,p) (6D, 7F)
 There are   235 symmetry adapted cartesian basis functions of A   symmetry.
 There are   235 symmetry adapted basis functions of A   symmetry.
   235 basis functions,   420 primitive gaussians,   235 cartesian basis functions
    45 alpha electrons       45 beta electrons
       nuclear repulsion energy       678.3089963890 Hartrees.
 NAtoms=   21 NActive=   21 NUniq=   21 SFac= 1.00D+00 NAtFMM=   60 NAOKFM=F Big=F
 Integral buffers will be    131072 words long.
 Raffenetti 2 integral format.
 Two-electron integral symmetry is turned on.
 Nuclear repulsion after empirical dispersion term =      678.2701306265 Hartrees.
 One-electron integrals computed using PRISM.
 NBasis=   235 RedAO= T EigKep=  4.56D-04  NBF=   235
 NBsUse=   235 1.00D-06 EigRej= -1.00D+00 NBFU=   235
 ExpMin= 1.27D-01 ExpMax= 5.48D+03 ExpMxC= 8.25D+02 IAcc=3 IRadAn=         5 AccDes= 0.00D+00
 Harris functional with IExCor=  402 and IRadAn=       5 diagonalized for initial guess.
 HarFok:  IExCor=  402 AccDes= 0.00D+00 IRadAn=         5 IDoV= 1 UseB2=F ITyADJ=14
 ICtDFT=  3500011 ScaDFX=  1.000000  1.000000  1.000000  1.000000
 FoFCou: FMM=F IPFlag=           0 FMFlag=      100000 FMFlg1=           0
         NFxFlg=           0 DoJE=T BraDBF=F KetDBF=T FulRan=T
         wScrn=  0.000000 ICntrl=       500 IOpCl=  0 I1Cent=   200000004 NGrid=           0
         NMat0=    1 NMatS0=      1 NMatT0=    0 NMatD0=    1 NMtDS0=    0 NMtDT0=    0
 Petite list used in FoFCou.
 Requested convergence on RMS density matrix=1.00D-08 within 128 cycles.
 Requested convergence on MAX density matrix=1.00D-06.
 Requested convergence on             energy=1.00D-06.
 No special actions if energy rises.
 Integral accuracy reduced to 1.0D-05 until final iterations.
 Initial convergence to 1.0D-05 achieved.  Increase integral accuracy.
 SCF Done:  E(RB3LYP) =  -577.964388175     A.U. after   14 cycles
            NFock= 14  Conv=0.38D-08     -V/T= 2.0093
 DoSCS=F DFT=T ScalE2(SS,OS)=  1.000000  1.000000
 Range of M.O.s used for correlation:     1   235
 NBasis=   235 NAE=    45 NBE=    45 NFC=     0 NFV=     0
 NROrb=    235 NOA=    45 NOB=    45 NVA=   190 NVB=   190

 **** Warning!!: The largest alpha MO coefficient is  0.11331379D+02

 Symmetrizing basis deriv contribution to polar:
 IMax=3 JMax=2 DiffMx= 0.00D+00
 G2DrvN: will do    22 centers at a time, making    1 passes.
 Calling FoFCou, ICntrl=  3107 FMM=F I1Cent=   0 AccDes= 0.00D+00.
 End of G2Drv F.D. properties file   721 does not exist.
 End of G2Drv F.D. properties file   722 does not exist.
 End of G2Drv F.D. properties file   788 does not exist.
          IDoAtm=111111111111111111111
          Differentiating once with respect to electric field.
                with respect to dipole field.
          Differentiating once with respect to nuclear coordinates.
 Keep R1 ints in memory in canonical form, NReq=405692772.
          There are    66 degrees of freedom in the 1st order CPHF.  IDoFFX=6 NUNeed=     3.
     63 vectors produced by pass  0 Test12= 1.30D-14 1.52D-09 XBig12= 2.24D+02 1.14D+01.
 AX will form    63 AO Fock derivatives at one time.
     63 vectors produced by pass  1 Test12= 1.30D-14 1.52D-09 XBig12= 6.08D+01 2.43D+00.
     63 vectors produced by pass  2 Test12= 1.30D-14 1.52D-09 XBig12= 8.47D-01 1.79D-01.
     63 vectors produced by pass  3 Test12= 1.30D-14 1.52D-09 XBig12= 4.15D-03 1.07D-02.
     63 vectors produced by pass  4 Test12= 1.30D-14 1.52D-09 XBig12= 6.55D-06 5.14D-04.
     60 vectors produced by pass  5 Test12= 1.30D-14 1.52D-09 XBig12= 7.79D-09 1.29D-05.
     12 vectors produced by pass  6 Test12= 1.30D-14 1.52D-09 XBig12= 7.52D-12 3.56D-07.
      2 vectors produced by pass  7 Test12= 1.30D-14 1.52D-09 XBig12= 5.92D-15 1.13D-08.
 InvSVY:  IOpt=1 It=  1 EMax= 5.33D-15
 Solved reduced A of dimension   389 with    66 vectors.
 Isotropic polarizability for W=    0.000000      114.36 Bohr**3.
 End of Minotr F.D. properties file   721 does not exist.
 End of Minotr F.D. properties file   722 does not exist.
 End of Minotr F.D. properties file   788 does not exist.

 **********************************************************************

            Population analysis using the SCF density.

 **********************************************************************

 Orbital symmetries:
       Occupied  (A) (A) (A) (A) (A) (A) (A) (A) (A) (A) (A) (A)
                 (A) (A) (A) (A) (A) (A) (A) (A) (A) (A) (A) (A)
                 (A) (A) (A) (A) (A) (A) (A) (A) (A) (A) (A) (A)
                 (A) (A) (A) (A) (A) (A) (A) (A) (A)
       Virtual   (A) (A) (A) (A) (A) (A) (A) (A) (A) (A) (A) (A)
                 (A) (A) (A) (A) (A) (A) (A) (A) (A) (A) (A) (A)
                 (A) (A) (A) (A) (A) (A) (A) (A) (A) (A) (A) (A)
                 (A) (A) (A) (A) (A) (A) (A) (A) (A) (A) (A) (A)
                 (A) (A) (A) (A) (A) (A) (A) (A) (A) (A) (A) (A)
                 (A) (A) (A) (A) (A) (A) (A) (A) (A) (A) (A) (A)
                 (A) (A) (A) (A) (A) (A) (A) (A) (A) (A) (A) (A)
                 (A) (A) (A) (A) (A) (A) (A) (A) (A) (A) (A) (A)
                 (A) (A) (A) (A) (A) (A) (A) (A) (A) (A) (A) (A)
                 (A) (A) (A) (A) (A) (A) (A) (A) (A) (A) (A) (A)
                 (A) (A) (A) (A) (A) (A) (A) (A) (A) (A) (A) (A)
                 (A) (A) (A) (A) (A) (A) (A) (A) (A) (A) (A) (A)
                 (A) (A) (A) (A) (A) (A) (A) (A) (A) (A) (A) (A)
                 (A) (A) (A) (A) (A) (A) (A) (A) (A) (A) (A) (A)
                 (A) (A) (A) (A) (A) (A) (A) (A) (A) (A) (A) (A)
                 (A) (A) (A) (A) (A) (A) (A) (A) (A) (A)
 The electronic state is 1-A.
 Alpha  occ. eigenvalues --  -19.17168 -19.17167 -14.33347 -10.25907 -10.25887
 Alpha  occ. eigenvalues --  -10.23956 -10.22605 -10.21454 -10.21453 -10.20826
 Alpha  occ. eigenvalues --  -10.20825 -10.19298  -6.78996  -1.07761  -1.01068
 Alpha  occ. eigenvalues --   -0.90439  -0.87171  -0.78156  -0.76535  -0.75373
 Alpha  occ. eigenvalues --   -0.64956  -0.64827  -0.62158  -0.55970  -0.54426
 Alpha  occ. eigenvalues --   -0.51432  -0.51118  -0.48131  -0.47153  -0.45247
 Alpha  occ. eigenvalues --   -0.43899  -0.43783  -0.42712  -0.40250  -0.36860
 Alpha  occ. eigenvalues --   -0.36633  -0.36120  -0.35251  -0.35056  -0.34570
 Alpha  occ. eigenvalues --   -0.33843  -0.32663  -0.28925  -0.27067  -0.26226
 Alpha virt. eigenvalues --   -0.06282  -0.01845   0.03974   0.04443   0.06325
 Alpha virt. eigenvalues --    0.08939   0.10494   0.10781   0.11973   0.13465
 Alpha virt. eigenvalues --    0.14110   0.14848   0.16005   0.17887   0.19203
 Alpha virt. eigenvalues --    0.20011   0.20488   0.21694   0.23444   0.28440
 Alpha virt. eigenvalues --    0.28793   0.29073   0.30990   0.37426   0.38520
 Alpha virt. eigenvalues --    0.40083   0.40612   0.44017   0.45863   0.50018
 Alpha virt. eigenvalues --    0.50740   0.53333   0.53716   0.53775   0.55492
 Alpha virt. eigenvalues --    0.56956   0.57328   0.57960   0.58214   0.58482
 Alpha virt. eigenvalues --    0.58960   0.59528   0.60276   0.62670   0.64261
 Alpha virt. eigenvalues --    0.66490   0.67155   0.69026   0.71809   0.72185
 Alpha virt. eigenvalues --    0.76859   0.77032   0.78393   0.78448   0.79454
 Alpha virt. eigenvalues --    0.80708   0.80801   0.80849   0.80862   0.83713
 Alpha virt. eigenvalues --    0.84602   0.86636   0.87656   0.88598   0.92534
 Alpha virt. eigenvalues --    0.94342   0.96879   0.98587   0.99987   1.02005
 Alpha virt. eigenvalues --    1.03816   1.07530   1.10075   1.11864   1.15268
 Alpha virt. eigenvalues --    1.17190   1.18294   1.20208   1.22794   1.22937
 Alpha virt. eigenvalues --    1.26386   1.29371   1.31225   1.32969   1.33947
 Alpha virt. eigenvalues --    1.34658   1.37563   1.37862   1.39858   1.40864
 Alpha virt. eigenvalues --    1.42844   1.43190   1.50373   1.53430   1.55066
 Alpha virt. eigenvalues --    1.57529   1.59889   1.60244   1.65504   1.67515
 Alpha virt. eigenvalues --    1.70791   1.74967   1.77947   1.78513   1.79746
 Alpha virt. eigenvalues --    1.79906   1.83806   1.85849   1.89152   1.89391
 Alpha virt. eigenvalues --    1.90849   1.91252   1.92761   1.94063   1.94085
 Alpha virt. eigenvalues --    1.95537   1.96508   1.96527   1.97036   2.01875
 Alpha virt. eigenvalues --    2.01929   2.06283   2.07138   2.08166   2.08736
 Alpha virt. eigenvalues --    2.11519   2.15570   2.19600   2.19649   2.21968
 Alpha virt. eigenvalues --    2.27945   2.30058   2.32591   2.32728   2.33888
 Alpha virt. eigenvalues --    2.39978   2.40184   2.42978   2.44994   2.46072
 Alpha virt. eigenvalues --    2.47541   2.49215   2.50317   2.50685   2.55749
 Alpha virt. eigenvalues --    2.56774   2.58423   2.58596   2.62363   2.63949
 Alpha virt. eigenvalues --    2.64600   2.65174   2.66483   2.72933   2.74576
 Alpha virt. eigenvalues --    2.76619   2.80375   2.82632   2.83564   2.85859
 Alpha virt. eigenvalues --    2.90532   2.96307   2.98301   2.98971   3.06217
 Alpha virt. eigenvalues --    3.10571   3.18241   3.19865   3.23727   3.25910
 Alpha virt. eigenvalues --    3.29202   3.34898   3.35931   3.36882   3.48524
 Alpha virt. eigenvalues --    3.50700   3.64657   3.81452   4.03659   4.06317
 Alpha virt. eigenvalues --    4.14060   4.16085   4.23181   4.31300   4.35147
 Alpha virt. eigenvalues --    4.42560   4.43403   4.60025   4.60825   4.88890
          Condensed to atoms (all electrons):
               1          2          3          4          5          6
     1  C    4.807364   0.332150   0.382566   0.382566  -0.034524  -0.034524
     2  C    0.332150   4.807364  -0.034524  -0.034524   0.382566   0.382566
     3  H    0.382566  -0.034524   0.616414  -0.048216  -0.008293   0.004609
     4  H    0.382566  -0.034524  -0.048216   0.616414   0.004609  -0.008293
     5  H   -0.034524   0.382566  -0.008293   0.004609   0.616413  -0.048216
     6  H   -0.034524   0.382566   0.004609  -0.008293  -0.048216   0.616415
     7  B   -0.067540  -0.067540   0.002971   0.002971   0.002972   0.002971
     8  O   -0.049187   0.268040   0.001989   0.001989  -0.035878  -0.035878
     9  O    0.268040  -0.049187  -0.035878  -0.035878   0.001989   0.001989
    10  C    0.001834   0.001834   0.000019   0.000019   0.000019   0.000019
    11  C   -0.000358   0.000076   0.000002   0.000002  -0.000002  -0.000002
    12  C    0.000076  -0.000358  -0.000002  -0.000002   0.000002   0.000002
    13  C    0.000002   0.000003  -0.000000  -0.000000  -0.000000  -0.000000
    14  H   -0.000226   0.000010   0.000003   0.000003  -0.000000  -0.000000
    15  C    0.000003   0.000002  -0.000000  -0.000000  -0.000000  -0.000000
    16  H    0.000010  -0.000226  -0.000000  -0.000000   0.000003   0.000003
    17  C   -0.000000  -0.000000   0.000000   0.000000   0.000000   0.000000
    18  H   -0.000000  -0.000000  -0.000000  -0.000000   0.000000   0.000000
    19  H   -0.000000  -0.000000   0.000000   0.000000  -0.000000  -0.000000
    20  C   -0.000000  -0.000000   0.000000   0.000000   0.000000   0.000000
    21  N   -0.000000  -0.000000   0.000000   0.000000   0.000000   0.000000
               7          8          9         10         11         12
     1  C   -0.067540  -0.049187   0.268040   0.001834  -0.000358   0.000076
     2  C   -0.067540   0.268040  -0.049187   0.001834   0.000076  -0.000358
     3  H    0.002971   0.001989  -0.035878   0.000019   0.000002  -0.000002
     4  H    0.002971   0.001989  -0.035878   0.000019   0.000002  -0.000002
     5  H    0.002972  -0.035878   0.001989   0.000019  -0.000002   0.000002
     6  H    0.002971  -0.035878   0.001989   0.000019  -0.000002   0.000002
     7  B    3.525235   0.411018   0.411017   0.414506  -0.045864  -0.045866
     8  O    0.411018   7.951644  -0.045215  -0.033153  -0.000051   0.003845
     9  O    0.411017  -0.045215   7.951647  -0.033153   0.003844  -0.000051
    10  C    0.414506  -0.033153  -0.033153   4.779790   0.494124   0.494136
    11  C   -0.045864  -0.000051   0.003844   0.494124   4.961651  -0.012755
    12  C   -0.045866   0.003845  -0.000051   0.494136  -0.012755   4.961659
    13  C    0.008322  -0.000036   0.000156  -0.028747   0.463793  -0.058778
    14  H   -0.011211   0.000082   0.006511  -0.043744   0.373728   0.006339
    15  C    0.008322   0.000156  -0.000036  -0.028746  -0.058778   0.463776
    16  H   -0.011210   0.006510   0.000082  -0.043744   0.006339   0.373728
    17  C   -0.000324   0.000003   0.000003  -0.028204  -0.017538  -0.017536
    18  H   -0.000207   0.000000  -0.000001   0.003704  -0.036513   0.000452
    19  H   -0.000207  -0.000001   0.000000   0.003704   0.000452  -0.036514
    20  C   -0.000025   0.000000   0.000000   0.000782   0.006235   0.006234
    21  N   -0.000000   0.000000   0.000000   0.000010  -0.000075  -0.000075
              13         14         15         16         17         18
     1  C    0.000002  -0.000226   0.000003   0.000010  -0.000000  -0.000000
     2  C    0.000003   0.000010   0.000002  -0.000226  -0.000000  -0.000000
     3  H   -0.000000   0.000003  -0.000000  -0.000000   0.000000  -0.000000
     4  H   -0.000000   0.000003  -0.000000  -0.000000   0.000000  -0.000000
     5  H   -0.000000  -0.000000  -0.000000   0.000003   0.000000   0.000000
     6  H   -0.000000  -0.000000  -0.000000   0.000003   0.000000   0.000000
     7  B    0.008322  -0.011211   0.008322  -0.011210  -0.000324  -0.000207
     8  O   -0.000036   0.000082   0.000156   0.006510   0.000003   0.000000
     9  O    0.000156   0.006511  -0.000036   0.000082   0.000003  -0.000001
    10  C   -0.028747  -0.043744  -0.028746  -0.043744  -0.028204   0.003704
    11  C    0.463793   0.373728  -0.058778   0.006339  -0.017538  -0.036513
    12  C   -0.058778   0.006339   0.463776   0.373728  -0.017536   0.000452
    13  C    4.899027  -0.044967  -0.031259   0.000545   0.528848   0.373037
    14  H   -0.044967   0.602744   0.000545  -0.000148   0.004018  -0.005016
    15  C   -0.031259   0.000545   4.899034  -0.044968   0.528860   0.004818
    16  H    0.000545  -0.000148  -0.044968   0.602747   0.004018   0.000018
    17  C    0.528848   0.004018   0.528860   0.004018   4.875015  -0.041962
    18  H    0.373037  -0.005016   0.004818   0.000018  -0.041962   0.595902
    19  H    0.004818   0.000018   0.373038  -0.005017  -0.041961  -0.000152
    20  C   -0.043620  -0.000210  -0.043619  -0.000210   0.209649  -0.007405
    21  N   -0.000204  -0.000000  -0.000203  -0.000000  -0.097099   0.000566
              19         20         21
     1  C   -0.000000  -0.000000  -0.000000
     2  C   -0.000000  -0.000000  -0.000000
     3  H    0.000000   0.000000   0.000000
     4  H    0.000000   0.000000   0.000000
     5  H   -0.000000   0.000000   0.000000
     6  H   -0.000000   0.000000   0.000000
     7  B   -0.000207  -0.000025  -0.000000
     8  O   -0.000001   0.000000   0.000000
     9  O    0.000000   0.000000   0.000000
    10  C    0.003704   0.000782   0.000010
    11  C    0.000452   0.006235  -0.000075
    12  C   -0.036514   0.006234  -0.000075
    13  C    0.004818  -0.043620  -0.000204
    14  H    0.000018  -0.000210  -0.000000
    15  C    0.373038  -0.043619  -0.000203
    16  H   -0.005017  -0.000210  -0.000000
    17  C   -0.041961   0.209649  -0.097099
    18  H   -0.000152  -0.007405   0.000566
    19  H    0.595902  -0.007405   0.000566
    20  C   -0.007405   4.760858   0.875689
    21  N    0.000566   0.875689   6.697925
 Mulliken charges:
               1
     1  C    0.011748
     2  C    0.011748
     3  H    0.118341
     4  H    0.118341
     5  H    0.118341
     6  H    0.118340
     7  B    0.459690
     8  O   -0.445876
     9  O   -0.445877
    10  C    0.044991
    11  C   -0.138308
    12  C   -0.138311
    13  C   -0.070940
    14  H    0.111523
    15  C   -0.070944
    16  H    0.111521
    17  C    0.094211
    18  H    0.112759
    19  H    0.112758
    20  C    0.243046
    21  N   -0.477100
 Sum of Mulliken charges =  -0.00000
 Mulliken charges with hydrogens summed into heavy atoms:
               1
     1  C    0.248429
     2  C    0.248429
     7  B    0.459690
     8  O   -0.445876
     9  O   -0.445877
    10  C    0.044991
    11  C   -0.026785
    12  C   -0.026790
    13  C    0.041819
    15  C    0.041814
    17  C    0.094211
    20  C    0.243046
    21  N   -0.477100
 APT charges:
               1
     1  C    0.489495
     2  C    0.489493
     3  H   -0.057052
     4  H   -0.057052
     5  H   -0.057052
     6  H   -0.057053
     7  B    1.319941
     8  O   -0.881314
     9  O   -0.881314
    10  C   -0.301923
    11  C   -0.011546
    12  C   -0.011544
    13  C   -0.032883
    14  H    0.047930
    15  C   -0.032872
    16  H    0.047924
    17  C    0.060134
    18  H    0.042520
    19  H    0.042519
    20  C    0.205666
    21  N   -0.364014
 Sum of APT charges =   0.00000
 APT charges with hydrogens summed into heavy atoms:
               1
     1  C    0.375390
     2  C    0.375389
     7  B    1.319941
     8  O   -0.881314
     9  O   -0.881314
    10  C   -0.301923
    11  C    0.036383
    12  C    0.036380
    13  C    0.009636
    15  C    0.009647
    17  C    0.060134
    20  C    0.205666
    21  N   -0.364014
 Electronic spatial extent (au):  <R**2>=           3211.2338
 Charge=             -0.0000 electrons
 Dipole moment (field-independent basis, Debye):
    X=              6.6216    Y=              0.0001    Z=             -0.0000  Tot=              6.6216
 Quadrupole moment (field-independent basis, Debye-Ang):
   XX=            -85.9439   YY=            -70.0877   ZZ=            -73.5695
   XY=             -0.0010   XZ=              0.0001   YZ=             -0.0003
 Traceless Quadrupole moment (field-independent basis, Debye-Ang):
   XX=             -9.4102   YY=              6.4460   ZZ=              2.9642
   XY=             -0.0010   XZ=              0.0001   YZ=             -0.0003
 Octapole moment (field-independent basis, Debye-Ang**2):
  XXX=            293.5826  YYY=              0.0005  ZZZ=              0.0001  XYY=             -6.6281
  XXY=              0.0024  XXZ=             -0.0002  XZZ=             15.1540  YZZ=             -0.0001
  YYZ=              0.0000  XYZ=             -0.0001
 Hexadecapole moment (field-independent basis, Debye-Ang**3):
 XXXX=          -4505.3039 YYYY=           -447.1867 ZZZZ=            -84.3686 XXXY=             -0.0229
 XXXZ=              0.0030 YYYX=             -0.0021 YYYZ=             -0.0009 ZZZX=              0.0001
 ZZZY=              0.0004 XXYY=           -672.7920 XXZZ=           -618.8271 YYZZ=            -95.9287
 XXYZ=             -0.0008 YYXZ=              0.0002 ZZXY=             -0.0001
 N-N= 6.782701306265D+02 E-N=-2.701690655681D+03  KE= 5.726411282146D+02
  Exact polarizability: 188.081   0.001 101.957  -0.000  -0.001  53.053
 Approx polarizability: 267.386   0.002 174.042  -0.000  -0.001  80.155
 Calling FoFJK, ICntrl=    100127 FMM=F ISym2X=0 I1Cent= 0 IOpClX= 0 NMat=1 NMatS=1 NMatT=0.
 ***** Axes restored to original set *****
 -------------------------------------------------------------------
 Center     Atomic                   Forces (Hartrees/Bohr)
 Number     Number              X              Y              Z
 -------------------------------------------------------------------
      1        6          -0.000170294   -0.000348502   -0.000000070
      2        6          -0.000169878    0.000348444   -0.000000738
      3        1           0.000008603    0.000083189    0.000022748
      4        1           0.000008390    0.000083297   -0.000022511
      5        1           0.000008441   -0.000083124    0.000022823
      6        1           0.000008392   -0.000083384   -0.000022308
      7        5           0.000014331    0.000000606    0.000001213
      8        8           0.000169726   -0.000060400   -0.000000366
      9        8           0.000170185    0.000060728   -0.000000383
     10        6          -0.000026749   -0.000010259   -0.000000452
     11        6           0.000026424    0.000022714    0.000000110
     12        6           0.000010748   -0.000011784    0.000000222
     13        6           0.000006925    0.000066174    0.000000441
     14        1           0.000023544   -0.000022942   -0.000000311
     15        6           0.000021833   -0.000053913   -0.000000365
     16        1           0.000025522    0.000021609    0.000000037
     17        6          -0.000082607   -0.000013660   -0.000000462
     18        1          -0.000022877   -0.000022816    0.000000045
     19        1          -0.000025061    0.000021111    0.000000230
     20        6          -0.000143060    0.000002799    0.000000181
     21        7           0.000137461    0.000000110   -0.000000086
 -------------------------------------------------------------------
 Cartesian Forces:  Max     0.000348502 RMS     0.000085160
 FormGI is forming the generalized inverse of G from B-inverse, IUseBI=4.

 GradGradGradGradGradGradGradGradGradGradGradGradGradGradGradGradGradGrad
 Berny optimization.
 Internal  Forces:  Max     0.000166841 RMS     0.000038364
 Search for a local minimum.
 Step number   1 out of a maximum of  116
 All quantities printed in internal units (Hartrees-Bohrs-Radians)
 Mixed Optimization -- En-DIIS/RFO-DIIS
 Second derivative matrix not updated -- analytic derivatives used.
 ITU=  0
     Eigenvalues ---   -0.00011   0.00351   0.01275   0.01466   0.01714
     Eigenvalues ---    0.01777   0.02152   0.02434   0.02519   0.02621
     Eigenvalues ---    0.02743   0.02774   0.02940   0.04734   0.05309
     Eigenvalues ---    0.05425   0.05461   0.06147   0.07421   0.09533
     Eigenvalues ---    0.09805   0.10636   0.11186   0.11252   0.11558
     Eigenvalues ---    0.11785   0.12355   0.12901   0.14905   0.16112
     Eigenvalues ---    0.19239   0.19360   0.19543   0.19585   0.24155
     Eigenvalues ---    0.24835   0.27046   0.28705   0.28804   0.33109
     Eigenvalues ---    0.33388   0.33543   0.34326   0.35523   0.36089
     Eigenvalues ---    0.36326   0.36419   0.36796   0.37025   0.38345
     Eigenvalues ---    0.41482   0.42325   0.42336   0.46128   0.47122
     Eigenvalues ---    0.51679   1.24542
 RFO step:  Lambda=-1.11862613D-04 EMin=-1.11859632D-04
 I=     1 Eig=   -1.12D-04 Dot1= -9.14D-10
 I=     1 Stepn=  6.00D-01 RXN=   6.00D-01 EDone=F
 Mixed    1 eigenvectors in step.  Raw Step.Grad= -9.14D-10.
 RFO eigenvector is Hessian eigenvector with negative curvature.
 Taking step of  6.00D-01 in eigenvector direction(s).  Step.Grad=  3.47D-07.
 Linear search not attempted -- first point.
 Iteration  1 RMS(Cart)=  0.05633316 RMS(Int)=  0.00228219
 Iteration  2 RMS(Cart)=  0.00255036 RMS(Int)=  0.00072695
 Iteration  3 RMS(Cart)=  0.00000114 RMS(Int)=  0.00072695
 Iteration  4 RMS(Cart)=  0.00000000 RMS(Int)=  0.00072695
 Variable       Old X    -DE/DX   Delta X   Delta X   Delta X     New X
                                 (Linear)    (Quad)   (Total)
    R1        2.93279   0.00011   0.00000   0.00000  -0.00085   2.93194
    R2        2.06791  -0.00001   0.00000  -0.00145  -0.00145   2.06647
    R3        2.06792  -0.00001   0.00000   0.00145   0.00145   2.06936
    R4        2.71471  -0.00017   0.00000  -0.00000  -0.00022   2.71449
    R5        2.06791  -0.00001   0.00000   0.00145   0.00145   2.06936
    R6        2.06792  -0.00001   0.00000  -0.00145  -0.00145   2.06647
    R7        2.71471  -0.00017   0.00000  -0.00000  -0.00022   2.71449
    R8        2.59043   0.00002   0.00000  -0.00000   0.00071   2.59114
    R9        2.59043   0.00002   0.00000  -0.00000   0.00071   2.59114
   R10        2.93416   0.00005   0.00000   0.00000   0.00000   2.93416
   R11        2.65474  -0.00001   0.00000   0.00000  -0.00000   2.65474
   R12        2.65470   0.00000   0.00000  -0.00000  -0.00000   2.65470
   R13        2.62607   0.00006   0.00000  -0.00000  -0.00000   2.62607
   R14        2.05080   0.00003   0.00000   0.00000   0.00000   2.05080
   R15        2.62611   0.00005   0.00000  -0.00000  -0.00000   2.62611
   R16        2.05080   0.00003   0.00000   0.00000   0.00000   2.05080
   R17        2.65427  -0.00000   0.00000   0.00000   0.00000   2.65427
   R18        2.04910   0.00003   0.00000  -0.00000  -0.00000   2.04910
   R19        2.65422   0.00001   0.00000   0.00000   0.00000   2.65422
   R20        2.04910   0.00003   0.00000   0.00000   0.00000   2.04910
   R21        2.70807   0.00001   0.00000  -0.00000  -0.00000   2.70807
   R22        2.19818  -0.00014   0.00000   0.00000   0.00000   2.19818
    A1        1.96573  -0.00007   0.00000   0.00284   0.00368   1.96941
    A2        1.96573  -0.00007   0.00000  -0.00284  -0.00215   1.96358
    A3        1.83338  -0.00000   0.00000   0.00000  -0.00357   1.82981
    A4        1.89312   0.00006   0.00000  -0.00000  -0.00035   1.89276
    A5        1.90184   0.00004   0.00000   0.00367   0.00490   1.90674
    A6        1.90184   0.00004   0.00000  -0.00367  -0.00251   1.89933
    A7        1.96573  -0.00007   0.00000  -0.00284  -0.00215   1.96358
    A8        1.96573  -0.00007   0.00000   0.00284   0.00368   1.96941
    A9        1.83338  -0.00000   0.00000   0.00000  -0.00357   1.82981
   A10        1.89312   0.00006   0.00000  -0.00000  -0.00035   1.89276
   A11        1.90184   0.00004   0.00000  -0.00367  -0.00251   1.89933
   A12        1.90184   0.00004   0.00000   0.00367   0.00490   1.90674
   A13        1.98762  -0.00001   0.00000  -0.00000  -0.00109   1.98653
   A14        2.14779   0.00000   0.00000   0.00000   0.00055   2.14833
   A15        2.14778   0.00001   0.00000   0.00000   0.00055   2.14832
   A16        1.88520   0.00001   0.00000   0.00000  -0.00283   1.88236
   A17        1.88520   0.00001   0.00000  -0.00000  -0.00284   1.88236
   A18        2.10683   0.00001   0.00000   0.00000   0.00000   2.10683
   A19        2.10687   0.00001   0.00000  -0.00000  -0.00000   2.10687
   A20        2.06949  -0.00002   0.00000   0.00000  -0.00000   2.06949
   A21        2.11394   0.00000   0.00000  -0.00000  -0.00000   2.11394
   A22        2.08075  -0.00001   0.00000   0.00000   0.00000   2.08075
   A23        2.08850   0.00001   0.00000  -0.00000  -0.00000   2.08850
   A24        2.11394   0.00000   0.00000  -0.00000  -0.00000   2.11394
   A25        2.08078  -0.00001   0.00000   0.00000   0.00000   2.08078
   A26        2.08846   0.00001   0.00000  -0.00000  -0.00000   2.08846
   A27        2.08555   0.00003   0.00000   0.00000  -0.00000   2.08555
   A28        2.11136  -0.00001   0.00000  -0.00000  -0.00000   2.11136
   A29        2.08628  -0.00002   0.00000  -0.00000  -0.00000   2.08628
   A30        2.08554   0.00003   0.00000   0.00000  -0.00000   2.08554
   A31        2.11133  -0.00000   0.00000  -0.00000  -0.00000   2.11133
   A32        2.08631  -0.00003   0.00000  -0.00000  -0.00000   2.08631
   A33        2.09791  -0.00005   0.00000  -0.00000  -0.00000   2.09791
   A34        2.09261   0.00003   0.00000   0.00000   0.00000   2.09261
   A35        2.09267   0.00002   0.00000   0.00000   0.00000   2.09267
   A36        3.14158   0.00000   0.00000   0.00000   0.00000   3.14158
   A37        3.14159   0.00000   0.00000   0.00000   0.00000   3.14159
    D1        0.00000  -0.00000   0.00000  -0.16819  -0.16822  -0.16821
    D2        2.14786  -0.00002   0.00000  -0.16819  -0.16751   1.98034
    D3       -2.06766  -0.00001   0.00000  -0.16226  -0.16186  -2.22953
    D4       -2.14785   0.00002   0.00000  -0.16819  -0.16892  -2.31677
    D5        0.00000  -0.00000   0.00000  -0.16819  -0.16822  -0.16821
    D6        2.06767   0.00001   0.00000  -0.16226  -0.16257   1.90510
    D7        2.06767   0.00001   0.00000  -0.16226  -0.16257   1.90510
    D8       -2.06766  -0.00001   0.00000  -0.16226  -0.16186  -2.22953
    D9        0.00000   0.00000   0.00000  -0.15632  -0.15621  -0.15621
   D10        0.00000  -0.00000   0.00000   0.12801   0.12786   0.12786
   D11        2.11024  -0.00006   0.00000   0.13326   0.13273   2.24297
   D12       -2.11024   0.00006   0.00000   0.13326   0.13367  -1.97657
   D13       -0.00000   0.00000   0.00000   0.12801   0.12786   0.12786
   D14       -2.11025   0.00006   0.00000   0.13326   0.13367  -1.97658
   D15        2.11024  -0.00006   0.00000   0.13326   0.13273   2.24296
   D16        0.00001  -0.00000   0.00000  -0.05361  -0.05354  -0.05353
   D17        3.14158   0.00000   0.00000  -0.05361  -0.05354   3.08805
   D18       -0.00000   0.00000   0.00000  -0.05361  -0.05354  -0.05354
   D19       -3.14158  -0.00000   0.00000  -0.05361  -0.05354   3.08807
   D20       -3.14155  -0.00000   0.00000  -0.02062  -0.02062   3.12102
   D21        0.00005  -0.00000   0.00000  -0.02062  -0.02062  -0.02057
   D22        0.00003   0.00000   0.00000  -0.02062  -0.02062  -0.02059
   D23       -3.14156   0.00000   0.00000  -0.02062  -0.02062   3.12100
   D24       -3.14159  -0.00000   0.00000  -0.00023  -0.00023   3.14137
   D25        0.00000  -0.00000   0.00000  -0.00036  -0.00036  -0.00036
   D26        0.00000  -0.00000   0.00000  -0.00023  -0.00023  -0.00023
   D27       -3.14159  -0.00000   0.00000  -0.00036  -0.00036   3.14123
   D28       -3.14159  -0.00000   0.00000  -0.00023  -0.00023   3.14137
   D29        0.00000  -0.00000   0.00000  -0.00036  -0.00036  -0.00036
   D30        0.00000  -0.00000   0.00000  -0.00023  -0.00023  -0.00022
   D31       -3.14159  -0.00000   0.00000  -0.00036  -0.00036   3.14123
   D32       -0.00000   0.00000   0.00000   0.00045   0.00045   0.00044
   D33        3.14159   0.00000   0.00000   0.00008   0.00008  -3.14152
   D34        3.14158   0.00000   0.00000   0.00059   0.00059  -3.14102
   D35       -0.00000   0.00000   0.00000   0.00022   0.00022   0.00021
   D36       -0.00000   0.00000   0.00000   0.00045   0.00045   0.00044
   D37       -3.14159  -0.00000   0.00000   0.00008   0.00008  -3.14151
   D38        3.14159   0.00000   0.00000   0.00059   0.00059  -3.14101
   D39        0.00000  -0.00000   0.00000   0.00022   0.00022   0.00022
   D40        0.00001  -0.00000   0.00000  -0.00022  -0.00022  -0.00022
   D41       -3.14159  -0.00000   0.00000  -0.00022  -0.00022   3.14137
   D42       -3.14159  -0.00000   0.00000   0.00014   0.00014  -3.14145
   D43       -0.00000   0.00000   0.00000   0.00014   0.00014   0.00014
   D44       -0.00000   0.00000   0.00000  -0.00022  -0.00022  -0.00022
   D45       -3.14159  -0.00000   0.00000  -0.00022  -0.00022   3.14137
   D46        3.14159   0.00000   0.00000   0.00014   0.00014  -3.14146
   D47       -0.00000   0.00000   0.00000   0.00014   0.00014   0.00014
         Item               Value     Threshold  Converged?
 Maximum Force            0.000167     0.000450     YES
 RMS     Force            0.000038     0.000300     YES
 Maximum Displacement     0.199782     0.001800     NO 
 RMS     Displacement     0.056363     0.001200     NO 
 Predicted change in Energy=-2.011985D-05
 GradGradGradGradGradGradGradGradGradGradGradGradGradGradGradGradGradGrad

                          Input orientation:                          
 ---------------------------------------------------------------------
 Center     Atomic      Atomic             Coordinates (Angstroms)
 Number     Number       Type             X           Y           Z
 ---------------------------------------------------------------------
      1          6           0        3.844005   -0.774836   -0.038407
      2          6           0        3.844034    0.774776    0.038420
      3          1           0        4.396814   -1.240495    0.782181
      4          1           0        4.249499   -1.147583   -0.984869
      5          1           0        4.249534    1.147507    0.984886
      6          1           0        4.396871    1.240413   -0.782163
      7          5           0        1.711119    0.000012   -0.000008
      8          8           0        2.459745    1.147626   -0.051579
      9          8           0        2.459700   -1.147632    0.051578
     10          6           0        0.158427    0.000034   -0.000007
     11          6           0       -0.559081   -1.207387    0.029379
     12          6           0       -0.559075    1.207430   -0.029390
     13          6           0       -1.948703   -1.217234    0.029888
     14          1           0       -0.015340   -2.146311    0.051887
     15          6           0       -1.948717    1.217278   -0.029894
     16          1           0       -0.015364    2.146373   -0.051898
     17          6           0       -2.648855    0.000033    0.000001
     18          1           0       -2.500116   -2.150620    0.052675
     19          1           0       -2.500099    2.150683   -0.052684
     20          6           0       -4.081903   -0.000013    0.000005
     21          7           0       -5.245130   -0.000067    0.000012
 ---------------------------------------------------------------------
                    Distance matrix (angstroms):
                    1          2          3          4          5
     1  C    0.000000
     2  C    1.551515   0.000000
     3  H    1.093527   2.218121   0.000000
     4  H    1.095060   2.215172   1.775612   0.000000
     5  H    2.215172   1.095060   2.401111   3.024463   0.000000
     6  H    2.218121   1.093528   2.932929   2.401111   1.775612
     7  B    2.269596   2.269596   3.060006   2.954708   2.954710
     8  O    2.369009   1.436444   3.185986   3.056507   2.068236
     9  O    1.436445   2.369009   2.072393   2.068237   3.056506
    10  C    3.766349   3.766351   4.484936   4.361634   4.361635
    11  C    4.424801   4.828714   5.012854   4.914745   5.438869
    12  C    4.828724   4.424834   5.586754   5.438880   4.914780
    13  C    5.809978   6.125682   6.389998   6.281107   6.702400
    14  H    4.096784   4.840217   4.562997   4.501242   5.468901
    15  C    6.125701   5.810029   6.853165   6.702420   6.281159
    16  H    4.840286   4.096875   5.624400   5.468970   4.501334
    17  C    6.539046   6.539061   7.196678   7.062173   7.062185
    18  H    6.492222   6.986157   6.994866   6.902166   7.569969
    19  H    6.986166   6.492260   7.730750   7.569981   6.902206
    20  C    7.963783   7.963809   8.604606   8.467536   8.467563
    21  N    9.122177   9.122213   9.752822   9.614300   9.614341
                    6          7          8          9         10
     6  H    0.000000
     7  B    3.060004   0.000000
     8  O    2.072394   1.371174   0.000000
     9  O    3.185987   1.371175   2.297574   0.000000
    10  C    4.484943   1.552692   2.572099   2.572092   0.000000
    11  C    5.586751   2.571475   3.829615   3.019454   1.404829
    12  C    5.012899   2.571479   3.019494   3.829605   1.404806
    13  C    6.853157   3.857056   5.003360   4.409006   2.433646
    14  H    5.624335   2.755006   4.121501   2.668930   2.153993
    15  C    6.390065   3.857075   4.409066   5.003357   2.433646
    16  H    4.563098   2.755050   2.669019   4.121543   2.153988
    17  C    7.196706   4.359974   5.236165   5.236137   2.807282
    18  H    7.730750   4.728900   5.957308   5.060214   3.419932
    19  H    6.994921   4.728902   5.060255   5.957294   3.419916
    20  C    8.604653   5.793022   6.641754   6.641706   4.240330
    21  N    9.752885   6.956249   7.790055   7.789992   5.403557
                   11         12         13         14         15
    11  C    0.000000
    12  C    2.415532   0.000000
    13  C    1.389657   2.795278   0.000000
    14  H    1.085237   3.398505   2.145125   0.000000
    15  C    2.795282   1.389677   2.435246   3.880511   0.000000
    16  H    3.398520   1.085238   3.880508   4.293938   2.145123
    17  C    2.413686   2.413680   1.404580   3.397777   1.404554
    18  H    2.158205   3.879546   1.084336   2.484780   3.413736
    19  H    3.879551   2.158203   3.413755   4.964788   1.084337
    20  C    3.724096   3.724124   2.456229   4.598502   2.456252
    21  N    4.839167   4.839218   3.514088   5.653296   3.514138
                   16         17         18         19         20
    16  H    0.000000
    17  C    3.397755   0.000000
    18  H    4.964783   2.156434   0.000000
    19  H    2.484739   2.156432   4.302593   0.000000
    20  C    4.598522   1.433048   2.670194   2.670276   0.000000
    21  N    5.653349   2.596275   3.487514   3.487650   1.163227
                   21
    21  N    0.000000
 Stoichiometry    C9H8BNO2
 Framework group  C1[X(C9H8BNO2)]
 Deg. of freedom    57
 Full point group                 C1      NOp   1
 Largest Abelian subgroup         C1      NOp   1
 Largest concise Abelian subgroup C1      NOp   1
                         Standard orientation:                         
 ---------------------------------------------------------------------
 Center     Atomic      Atomic             Coordinates (Angstroms)
 Number     Number       Type             X           Y           Z
 ---------------------------------------------------------------------
      1          6           0        3.843362   -0.773981   -0.052901
      2          6           0        3.843391    0.773921    0.052914
      3          1           0        4.396171   -1.254916    0.758828
      4          1           0        4.248857   -1.128949   -1.006174
      5          1           0        4.248891    1.128874    1.006190
      6          1           0        4.396228    1.254835   -0.758810
      7          5           0        1.710476    0.000012   -0.000008
      8          8           0        2.459103    1.148390   -0.030091
      9          8           0        2.459058   -1.148396    0.030090
     10          6           0        0.157784    0.000034   -0.000006
     11          6           0       -0.559724   -1.207725    0.006776
     12          6           0       -0.559718    1.207769   -0.006787
     13          6           0       -1.949346   -1.217580    0.007101
     14          1           0       -0.015983   -2.146906    0.011708
     15          6           0       -1.949360    1.217624   -0.007107
     16          1           0       -0.016007    2.146968   -0.011718
     17          6           0       -2.649498    0.000033    0.000001
     18          1           0       -2.500759   -2.151229    0.012415
     19          1           0       -2.500742    2.151292   -0.012424
     20          6           0       -4.082546   -0.000013    0.000004
     21          7           0       -5.245773   -0.000068    0.000009
 ---------------------------------------------------------------------
 Rotational constants (GHZ):           3.2643911           0.3511070           0.3183282
 Standard basis: 6-31G(d,p) (6D, 7F)
 There are   235 symmetry adapted cartesian basis functions of A   symmetry.
 There are   235 symmetry adapted basis functions of A   symmetry.
   235 basis functions,   420 primitive gaussians,   235 cartesian basis functions
    45 alpha electrons       45 beta electrons
       nuclear repulsion energy       678.3876591268 Hartrees.
 NAtoms=   21 NActive=   21 NUniq=   21 SFac= 1.00D+00 NAtFMM=   60 NAOKFM=F Big=F
 Integral buffers will be    131072 words long.
 Raffenetti 2 integral format.
 Two-electron integral symmetry is turned on.
 Nuclear repulsion after empirical dispersion term =      678.3487839435 Hartrees.
 One-electron integrals computed using PRISM.
 NBasis=   235 RedAO= T EigKep=  4.56D-04  NBF=   235
 NBsUse=   235 1.00D-06 EigRej= -1.00D+00 NBFU=   235
 Initial guess from the checkpoint file:  "/home/pub16/lsh/Gau-1166287.chk"
 B after Tr=    -0.000000    0.000000    0.000000
         Rot=    0.999997   -0.002471    0.000000   -0.000000 Ang=  -0.28 deg.
 ExpMin= 1.27D-01 ExpMax= 5.48D+03 ExpMxC= 8.25D+02 IAcc=2 IRadAn=         4 AccDes= 0.00D+00
 Harris functional with IExCor=  402 and IRadAn=       4 diagonalized for initial guess.
 HarFok:  IExCor=  402 AccDes= 0.00D+00 IRadAn=         4 IDoV= 1 UseB2=F ITyADJ=14
 ICtDFT=  3500011 ScaDFX=  1.000000  1.000000  1.000000  1.000000
 FoFCou: FMM=F IPFlag=           0 FMFlag=      100000 FMFlg1=           0
         NFxFlg=           0 DoJE=T BraDBF=F KetDBF=T FulRan=T
         wScrn=  0.000000 ICntrl=       500 IOpCl=  0 I1Cent=   200000004 NGrid=           0
         NMat0=    1 NMatS0=      1 NMatT0=    0 NMatD0=    1 NMtDS0=    0 NMtDT0=    0
 Petite list used in FoFCou.
 Requested convergence on RMS density matrix=1.00D-08 within 128 cycles.
 Requested convergence on MAX density matrix=1.00D-06.
 Requested convergence on             energy=1.00D-06.
 No special actions if energy rises.
 Integral accuracy reduced to 1.0D-05 until final iterations.
 Initial convergence to 1.0D-05 achieved.  Increase integral accuracy.
 SCF Done:  E(RB3LYP) =  -577.964393711     A.U. after   11 cycles
            NFock= 11  Conv=0.37D-08     -V/T= 2.0093
 DoSCS=F DFT=T ScalE2(SS,OS)=  1.000000  1.000000
 Range of M.O.s used for correlation:     1   235
 NBasis=   235 NAE=    45 NBE=    45 NFC=     0 NFV=     0
 NROrb=    235 NOA=    45 NOB=    45 NVA=   190 NVB=   190

 **** Warning!!: The largest alpha MO coefficient is  0.11214154D+02

 Symmetrizing basis deriv contribution to polar:
 IMax=3 JMax=2 DiffMx= 0.00D+00
 G2DrvN: will do    22 centers at a time, making    1 passes.
 Calling FoFCou, ICntrl=  3107 FMM=F I1Cent=   0 AccDes= 0.00D+00.
 End of G2Drv F.D. properties file   721 does not exist.
 End of G2Drv F.D. properties file   722 does not exist.
 End of G2Drv F.D. properties file   788 does not exist.
          IDoAtm=111111111111111111111
          Differentiating once with respect to electric field.
                with respect to dipole field.
          Differentiating once with respect to nuclear coordinates.
 Keep R1 ints in memory in canonical form, NReq=405692772.
          There are    66 degrees of freedom in the 1st order CPHF.  IDoFFX=6 NUNeed=     3.
     63 vectors produced by pass  0 Test12= 1.30D-14 1.52D-09 XBig12= 2.24D+02 1.14D+01.
 AX will form    63 AO Fock derivatives at one time.
     63 vectors produced by pass  1 Test12= 1.30D-14 1.52D-09 XBig12= 6.08D+01 2.43D+00.
     63 vectors produced by pass  2 Test12= 1.30D-14 1.52D-09 XBig12= 8.47D-01 1.79D-01.
     63 vectors produced by pass  3 Test12= 1.30D-14 1.52D-09 XBig12= 4.14D-03 1.07D-02.
     63 vectors produced by pass  4 Test12= 1.30D-14 1.52D-09 XBig12= 6.52D-06 4.75D-04.
     59 vectors produced by pass  5 Test12= 1.30D-14 1.52D-09 XBig12= 7.75D-09 1.30D-05.
     12 vectors produced by pass  6 Test12= 1.30D-14 1.52D-09 XBig12= 7.66D-12 3.65D-07.
      2 vectors produced by pass  7 Test12= 1.30D-14 1.52D-09 XBig12= 6.17D-15 1.05D-08.
 InvSVY:  IOpt=1 It=  1 EMax= 1.24D-14
 Solved reduced A of dimension   388 with    66 vectors.
 Isotropic polarizability for W=    0.000000      114.38 Bohr**3.
 End of Minotr F.D. properties file   721 does not exist.
 End of Minotr F.D. properties file   722 does not exist.
 End of Minotr F.D. properties file   788 does not exist.
 Calling FoFJK, ICntrl=    100127 FMM=F ISym2X=0 I1Cent= 0 IOpClX= 0 NMat=1 NMatS=1 NMatT=0.
 ***** Axes restored to original set *****
 -------------------------------------------------------------------
 Center     Atomic                   Forces (Hartrees/Bohr)
 Number     Number              X              Y              Z
 -------------------------------------------------------------------
      1        6           0.000070267    0.000430895    0.000156820
      2        6           0.000070701   -0.000430920   -0.000157594
      3        1          -0.000021549    0.000136723    0.000151700
      4        1          -0.000052096    0.000207931   -0.000127991
      5        1          -0.000052081   -0.000207776    0.000128317
      6        1          -0.000021798   -0.000136939   -0.000151290
      7        5          -0.000042893    0.000000666    0.000001211
      8        8           0.000012008    0.000150699    0.000037884
      9        8           0.000012447   -0.000150404   -0.000038664
     10        6           0.000036423   -0.000010278   -0.000000208
     11        6           0.000024093    0.000006588   -0.000001095
     12        6           0.000008415    0.000004349    0.000001160
     13        6           0.000007557    0.000060524   -0.000000484
     14        1           0.000026918   -0.000021899    0.000003479
     15        6           0.000022466   -0.000048263    0.000000261
     16        1           0.000028895    0.000020560   -0.000003720
     17        6          -0.000076569   -0.000013668   -0.000000126
     18        1          -0.000022335   -0.000022335    0.000003219
     19        1          -0.000024519    0.000020637   -0.000002903
     20        6          -0.000148035    0.000002802    0.000000113
     21        7           0.000141685    0.000000108   -0.000000089
 -------------------------------------------------------------------
 Cartesian Forces:  Max     0.000430920 RMS     0.000109209
 FormGI is forming the generalized inverse of G from B-inverse, IUseBI=4.

 GradGradGradGradGradGradGradGradGradGradGradGradGradGradGradGradGradGrad
 Berny optimization.
 Using GEDIIS/GDIIS optimizer.
 Internal  Forces:  Max     0.000706145 RMS     0.000092837
 Search for a local minimum.
 Step number   2 out of a maximum of  116
 All quantities printed in internal units (Hartrees-Bohrs-Radians)
 Mixed Optimization -- En-DIIS/RFO-DIIS
 Swapping is turned off.
 Second derivative matrix not updated -- analytic derivatives used.
 ITU=  0  0
     Eigenvalues ---    0.00029   0.00341   0.01268   0.01474   0.01714
     Eigenvalues ---    0.01776   0.02153   0.02434   0.02518   0.02620
     Eigenvalues ---    0.02742   0.02775   0.02940   0.04725   0.05186
     Eigenvalues ---    0.05380   0.05604   0.06146   0.07420   0.09510
     Eigenvalues ---    0.09742   0.10609   0.11158   0.11195   0.11558
     Eigenvalues ---    0.11771   0.12345   0.12900   0.14901   0.16112
     Eigenvalues ---    0.19265   0.19361   0.19542   0.19598   0.24053
     Eigenvalues ---    0.24890   0.27005   0.28705   0.28776   0.33018
     Eigenvalues ---    0.33351   0.33654   0.34380   0.35522   0.36089
     Eigenvalues ---    0.36326   0.36419   0.36796   0.36966   0.38236
     Eigenvalues ---    0.41399   0.42324   0.42334   0.46128   0.47122
     Eigenvalues ---    0.51679   1.24542
 En-DIIS/RFO-DIIS/Sim-DIIS IScMMF=       -3 using points:     2    1
 RFO step:  Lambda=-5.02202466D-06.
 DidBck=T Rises=F RFO-DIIS coefs:   -0.17799    1.17799
 Iteration  1 RMS(Cart)=  0.06673812 RMS(Int)=  0.00301973
 Iteration  2 RMS(Cart)=  0.00355808 RMS(Int)=  0.00015297
 Iteration  3 RMS(Cart)=  0.00000140 RMS(Int)=  0.00015296
 Iteration  4 RMS(Cart)=  0.00000000 RMS(Int)=  0.00015296
 Variable       Old X    -DE/DX   Delta X   Delta X   Delta X     New X
                                 (Linear)    (Quad)   (Total)
    R1        2.93194  -0.00071   0.00100   0.00154   0.00236   2.93430
    R2        2.06647   0.00004   0.00171  -0.00005   0.00166   2.06812
    R3        2.06936   0.00002  -0.00171  -0.00004  -0.00175   2.06761
    R4        2.71449   0.00001   0.00026  -0.00094  -0.00073   2.71376
    R5        2.06936   0.00002  -0.00171  -0.00004  -0.00175   2.06761
    R6        2.06647   0.00004   0.00171  -0.00005   0.00165   2.06812
    R7        2.71449   0.00001   0.00026  -0.00094  -0.00073   2.71376
    R8        2.59114   0.00007  -0.00084   0.00003  -0.00066   2.59048
    R9        2.59114   0.00007  -0.00084   0.00003  -0.00066   2.59048
   R10        2.93416  -0.00002  -0.00000   0.00016   0.00016   2.93432
   R11        2.65474  -0.00000   0.00000  -0.00003  -0.00003   2.65471
   R12        2.65470   0.00001   0.00000   0.00001   0.00001   2.65471
   R13        2.62607   0.00005   0.00000   0.00010   0.00010   2.62618
   R14        2.05080   0.00003  -0.00000   0.00009   0.00009   2.05089
   R15        2.62611   0.00005   0.00000   0.00007   0.00007   2.62618
   R16        2.05080   0.00003  -0.00000   0.00008   0.00008   2.05089
   R17        2.65427   0.00000  -0.00000  -0.00001  -0.00001   2.65426
   R18        2.04910   0.00003   0.00000   0.00010   0.00010   2.04919
   R19        2.65422   0.00002  -0.00000   0.00004   0.00004   2.65426
   R20        2.04910   0.00003  -0.00000   0.00009   0.00009   2.04919
   R21        2.70807   0.00001   0.00000  -0.00002  -0.00002   2.70805
   R22        2.19818  -0.00014  -0.00000  -0.00011  -0.00011   2.19807
    A1        1.96941  -0.00014  -0.00433  -0.00073  -0.00491   1.96450
    A2        1.96358  -0.00022   0.00253  -0.00060   0.00210   1.96568
    A3        1.82981   0.00015   0.00421  -0.00023   0.00323   1.83303
    A4        1.89276   0.00020   0.00042   0.00037   0.00071   1.89347
    A5        1.90674   0.00000  -0.00577   0.00063  -0.00490   1.90184
    A6        1.89933   0.00001   0.00296   0.00064   0.00386   1.90319
    A7        1.96358  -0.00022   0.00253  -0.00060   0.00210   1.96568
    A8        1.96941  -0.00014  -0.00433  -0.00073  -0.00491   1.96450
    A9        1.82981   0.00015   0.00421  -0.00023   0.00322   1.83303
   A10        1.89276   0.00020   0.00042   0.00037   0.00071   1.89347
   A11        1.89933   0.00001   0.00296   0.00064   0.00386   1.90319
   A12        1.90674   0.00000  -0.00577   0.00063  -0.00490   1.90184
   A13        1.98653  -0.00003   0.00129  -0.00016   0.00090   1.98743
   A14        2.14833   0.00001  -0.00064   0.00008  -0.00046   2.14788
   A15        2.14832   0.00002  -0.00064   0.00009  -0.00044   2.14788
   A16        1.88236  -0.00013   0.00334   0.00031   0.00306   1.88542
   A17        1.88236  -0.00013   0.00334   0.00032   0.00306   1.88542
   A18        2.10683   0.00000  -0.00000   0.00005   0.00005   2.10688
   A19        2.10687   0.00000   0.00000   0.00001   0.00001   2.10688
   A20        2.06949  -0.00000   0.00000  -0.00006  -0.00006   2.06943
   A21        2.11394  -0.00000   0.00000  -0.00000  -0.00000   2.11394
   A22        2.08075  -0.00001  -0.00000  -0.00002  -0.00002   2.08073
   A23        2.08850   0.00001   0.00000   0.00003   0.00003   2.08852
   A24        2.11394  -0.00001   0.00000  -0.00001  -0.00001   2.11394
   A25        2.08078  -0.00001  -0.00000  -0.00005  -0.00005   2.08073
   A26        2.08846   0.00002   0.00000   0.00006   0.00006   2.08852
   A27        2.08555   0.00003   0.00000   0.00015   0.00015   2.08570
   A28        2.11136  -0.00001   0.00000  -0.00005  -0.00005   2.11131
   A29        2.08628  -0.00002   0.00000  -0.00010  -0.00010   2.08618
   A30        2.08554   0.00003   0.00000   0.00015   0.00015   2.08570
   A31        2.11133  -0.00000   0.00000  -0.00002  -0.00002   2.11131
   A32        2.08631  -0.00002   0.00000  -0.00014  -0.00014   2.08618
   A33        2.09791  -0.00004   0.00000  -0.00023  -0.00023   2.09768
   A34        2.09261   0.00002  -0.00000   0.00015   0.00015   2.09275
   A35        2.09267   0.00002  -0.00000   0.00008   0.00008   2.09275
   A36        3.14158   0.00000  -0.00000   0.00002   0.00002   3.14159
   A37        3.14159   0.00000  -0.00000   0.00000   0.00000   3.14159
    D1       -0.16821  -0.00001   0.19816   0.00013   0.19829   0.03008
    D2        1.98034  -0.00001   0.19733  -0.00040   0.19708   2.17742
    D3       -2.22953   0.00001   0.19067  -0.00018   0.19056  -2.03897
    D4       -2.31677  -0.00000   0.19899   0.00067   0.19951  -2.11726
    D5       -0.16821  -0.00001   0.19816   0.00014   0.19829   0.03008
    D6        1.90510   0.00001   0.19150   0.00036   0.19177   2.09688
    D7        1.90510   0.00001   0.19150   0.00036   0.19177   2.09688
    D8       -2.22953   0.00001   0.19067  -0.00018   0.19056  -2.03897
    D9       -0.15621   0.00003   0.18402   0.00004   0.18404   0.02783
   D10        0.12786  -0.00003  -0.15062  -0.00004  -0.15065  -0.02279
   D11        2.24297  -0.00011  -0.15635  -0.00071  -0.15716   2.08581
   D12       -1.97657   0.00014  -0.15746   0.00046  -0.15690  -2.13347
   D13        0.12786  -0.00003  -0.15062  -0.00004  -0.15064  -0.02279
   D14       -1.97658   0.00014  -0.15746   0.00047  -0.15689  -2.13347
   D15        2.24296  -0.00011  -0.15635  -0.00071  -0.15716   2.08581
   D16       -0.05353   0.00003   0.06306  -0.00003   0.06308   0.00955
   D17        3.08805   0.00003   0.06306  -0.00002   0.06309  -3.13204
   D18       -0.05354   0.00003   0.06306  -0.00002   0.06309   0.00955
   D19        3.08807   0.00003   0.06306  -0.00003   0.06308  -3.13204
   D20        3.12102   0.00001   0.02429  -0.00037   0.02392  -3.13825
   D21       -0.02057   0.00001   0.02429  -0.00037   0.02392   0.00334
   D22       -0.02059   0.00001   0.02429  -0.00036   0.02393   0.00334
   D23        3.12100   0.00001   0.02429  -0.00036   0.02393  -3.13825
   D24        3.14137  -0.00000   0.00027   0.00001   0.00027  -3.14154
   D25       -0.00036   0.00000   0.00043  -0.00001   0.00042   0.00006
   D26       -0.00023  -0.00000   0.00027   0.00001   0.00027   0.00005
   D27        3.14123   0.00000   0.00043  -0.00001   0.00042  -3.14153
   D28        3.14137  -0.00000   0.00027   0.00001   0.00027  -3.14154
   D29       -0.00036   0.00000   0.00043  -0.00000   0.00043   0.00006
   D30       -0.00022  -0.00000   0.00027   0.00000   0.00027   0.00005
   D31        3.14123   0.00000   0.00043  -0.00001   0.00042  -3.14153
   D32        0.00044   0.00000  -0.00053  -0.00001  -0.00054  -0.00010
   D33       -3.14152   0.00000  -0.00009  -0.00002  -0.00011   3.14156
   D34       -3.14102  -0.00000  -0.00069   0.00000  -0.00069   3.14148
   D35        0.00021  -0.00000  -0.00026  -0.00000  -0.00026  -0.00004
   D36        0.00044   0.00000  -0.00053  -0.00001  -0.00054  -0.00010
   D37       -3.14151   0.00000  -0.00009  -0.00002  -0.00011   3.14156
   D38       -3.14101  -0.00000  -0.00069  -0.00000  -0.00069   3.14148
   D39        0.00022  -0.00000  -0.00026  -0.00001  -0.00027  -0.00004
   D40       -0.00022  -0.00000   0.00026   0.00000   0.00026   0.00005
   D41        3.14137  -0.00000   0.00026   0.00001   0.00027  -3.14155
   D42       -3.14145  -0.00000  -0.00017   0.00001  -0.00016   3.14158
   D43        0.00014  -0.00000  -0.00017   0.00001  -0.00016  -0.00002
   D44       -0.00022  -0.00000   0.00026   0.00001   0.00027   0.00005
   D45        3.14137  -0.00000   0.00026   0.00001   0.00027  -3.14155
   D46       -3.14146  -0.00000  -0.00017   0.00002  -0.00015   3.14158
   D47        0.00014  -0.00000  -0.00017   0.00001  -0.00016  -0.00002
         Item               Value     Threshold  Converged?
 Maximum Force            0.000706     0.000450     NO 
 RMS     Force            0.000093     0.000300     YES
 Maximum Displacement     0.234400     0.001800     NO 
 RMS     Displacement     0.066543     0.001200     NO 
 Predicted change in Energy=-6.685164D-05
 GradGradGradGradGradGradGradGradGradGradGradGradGradGradGradGradGradGrad

                          Input orientation:                          
 ---------------------------------------------------------------------
 Center     Atomic      Atomic             Coordinates (Angstroms)
 Number     Number       Type             X           Y           Z
 ---------------------------------------------------------------------
      1          6           0        3.844991   -0.776367    0.006982
      2          6           0        3.844998    0.776335   -0.006976
      3          1           0        4.313567   -1.188127    0.906209
      4          1           0        4.339925   -1.205179   -0.869540
      5          1           0        4.339934    1.205142    0.869547
      6          1           0        4.313579    1.188091   -0.906202
      7          5           0        1.710268   -0.000006    0.000002
      8          8           0        2.458169    1.148786    0.008972
      9          8           0        2.458158   -1.148805   -0.008967
     10          6           0        0.157491    0.000001    0.000000
     11          6           0       -0.560053   -1.207724   -0.005390
     12          6           0       -0.560042    1.207732    0.005390
     13          6           0       -1.949731   -1.217525   -0.005493
     14          1           0       -0.016302   -2.146955   -0.009523
     15          6           0       -1.949720    1.217545    0.005490
     16          1           0       -0.016283    2.146958    0.009524
     17          6           0       -2.650013    0.000014   -0.000002
     18          1           0       -2.501161   -2.151227   -0.009689
     19          1           0       -2.501142    2.151253    0.009686
     20          6           0       -4.083052    0.000020   -0.000003
     21          7           0       -5.246220    0.000025   -0.000004
 ---------------------------------------------------------------------
                    Distance matrix (angstroms):
                    1          2          3          4          5
     1  C    0.000000
     2  C    1.552766   0.000000
     3  H    1.094403   2.216433   0.000000
[...]
 .00012236,0.00033998,0.00436022,0.00085979,0.00033934,-0.00019842,-0.0
 0100683,-0.00034094,-0.00014493,0.00100683,-0.00034095,-0.00014493,-0.
 00085978,0.00033935,-0.00019842,-0.00000011,0.00057112,-0.05657761,0.0
 0089815,-0.00013278,0.00604414,-0.00089818,-0.00013277,0.00604413,0.00
 000029,-0.01207061,0.13354979,0.00031290,-0.00036194,0.00002930,-0.000
 34967,-0.00084156,0.00019573,0.00001120,0.00002369,-0.00001949,-0.0000
 2723,-0.00000879,0.00001705,-0.00022617,0.00004907,0.00000842,-0.00031
 629,0.00008041,-0.00004201,-0.01280930,-0.02205551,0.00058644,-0.00404
 018,0.00154280,-0.00024550,-0.00020761,-0.00026083,-0.00007636,-0.1750
 3805,-0.06051022,0.00144645,0.69995560,0.00023687,-0.00021728,-0.00001
 080,-0.00087520,0.00041917,-0.00001644,0.00013517,-0.00002807,0.000033
 35,0.00013200,0.00000436,-0.00006939,0.00029397,-0.00011646,0.00009106
 ,0.00029379,-0.00012120,-0.00004949,-0.00979392,0.00627852,-0.00010865
 ,0.00463114,0.00110749,-0.00006994,0.00203927,-0.00326238,0.00015817,-
 0.11168870,-0.26927089,0.00473416,-0.04022881,0.71023140,0.00000606,-0
 .00001484,-0.00034969,0.00003172,0.00001911,0.00018712,-0.00003458,-0.
 00002137,0.00001636,0.00001657,0.00002168,0.00002263,0.00006966,-0.000
 00542,0.00000538,-0.00007057,0.00000724,0.00000311,0.00023425,-0.00009
 871,0.00214862,-0.00009748,0.00000493,0.00108379,-0.00007706,0.0000978
 9,0.00028330,0.00257098,0.00470401,-0.06416830,0.00079132,-0.01301351,
 0.13932172,-0.00034965,0.00084157,-0.00019574,0.00031290,0.00036193,-0
 .00002930,-0.00031629,-0.00008040,0.00004201,-0.00022617,-0.00004907,-
 0.00000842,-0.00002724,0.00000879,-0.00001705,0.00001120,-0.00002369,0
 .00001949,-0.01280901,0.02205568,-0.00058646,-0.00020763,0.00026080,0.
 00007636,-0.00404024,-0.00154276,0.00024549,-0.17503647,0.06050935,-0.
 00144656,0.06649124,0.02062351,-0.00048081,0.69995634,0.00087521,0.000
 41916,-0.00001644,-0.00023687,-0.00021729,-0.00001080,-0.00029379,-0.0
 0012119,-0.00004949,-0.00029396,-0.00011646,0.00009106,-0.00013200,0.0
 0000436,-0.00006939,-0.00013517,-0.00002807,0.00003335,0.00979409,0.00
 627823,-0.00010863,-0.00203930,-0.00326236,0.00015816,-0.00463109,0.00
 110754,-0.00006995,0.11168783,-0.26927247,0.00473433,-0.02062465,-0.05
 824778,0.00149922,0.04022892,0.71023066,-0.00003172,0.00001911,0.00018
 712,-0.00000606,-0.00001484,-0.00034969,0.00007057,0.00000724,0.000003
 11,-0.00006966,-0.00000542,0.00000538,-0.00001657,0.00002168,0.0000226
 3,0.00003458,-0.00002137,0.00001636,-0.00023427,-0.00009867,0.00214861
 ,0.00007706,0.00009789,0.00028330,0.00009747,0.00000493,0.00108379,-0.
 00257109,0.00470411,-0.06416831,0.00048090,0.00149924,0.00721021,-0.00
 079068,-0.01301345,0.13932172,-0.00027965,-0.00014067,-0.00003572,0.00
 045726,-0.00022712,0.00000457,0.00006800,0.00006428,0.00001725,0.00008
 561,0.00006720,-0.00001704,-0.00010241,0.00003397,-0.00002942,-0.00009
 598,0.00003670,0.00000644,0.00161669,-0.00479623,0.00009301,-0.0014844
 4,-0.00012097,0.00005060,0.00087451,0.00048939,0.00006376,-0.02796146,
 -0.07263726,0.00164990,-0.35054760,0.03171293,-0.00067555,-0.05186291,
 0.02734715,-0.00063334,0.70400644,-0.00049989,0.00002861,0.00001606,-0
 .00014337,-0.00014472,0.00005189,0.00001195,0.00001206,0.00001162,0.00
 001375,0.00000975,-0.00001246,-0.00003613,0.00001841,0.00001674,-0.000
 06188,0.00004521,-0.00001776,-0.00192867,-0.00410713,0.00026057,-0.001
 06157,0.00069859,-0.00011510,0.00055975,0.00051845,-0.00005067,-0.0285
 6614,0.03057710,-0.00043194,-0.03482474,-0.13008049,0.00156012,0.02880
 446,-0.01614406,0.00020474,0.04532447,0.71584405,0.00002615,-0.0000125
 7,0.00005134,0.00001125,-0.00001651,-0.00046913,-0.00000998,0.00000307
 ,-0.00000074,0.00001385,-0.00000491,-0.00000010,-0.00009824,0.00001741
 ,0.00001537,0.00008787,-0.00001979,0.00001815,0.00009191,0.00023037,0.
 00620407,-0.00001038,-0.00001931,-0.00049415,0.00000054,0.00000431,-0.
 00050971,0.00062839,-0.00045478,0.01074528,0.00084244,0.00155361,-0.06
 208630,-0.00063828,0.00018326,-0.00778565,-0.00109998,-0.01350265,0.13
 158646,-0.00055181,0.00014591,0.00006967,0.00014672,-0.00006315,-0.000
 03109,0.00008188,0.00000704,0.00001630,0.00008434,0.00000528,-0.000032
 21,0.00000126,0.00003670,0.00001503,-0.00000077,0.00005146,-0.00000575
 ,0.00065880,-0.00169348,0.00004030,0.00008728,0.00052081,-0.00001906,0
 .00002661,0.00017399,-0.00005189,0.01227440,-0.01470674,0.00035088,-0.
 13107411,0.12294498,-0.00276701,-0.00145738,-0.00346433,0.00007945,-0.
 01133122,0.02852841,-0.00065400,0.13580703,-0.00067013,0.00018342,0.00
 004813,0.00023031,-0.00000073,-0.00001831,0.00005509,0.00001498,0.0000
 2566,0.00005679,0.00001207,-0.00003382,-0.00001494,0.00004303,0.000006
 79,-0.00001152,0.00006166,0.00000018,0.00149597,-0.00185687,-0.0000178
 9,-0.00019390,0.00040900,-0.00000462,0.00052940,0.00091173,-0.00007077
 ,0.01390983,-0.01927694,0.00049181,0.12241796,-0.26982914,0.00518505,-
 0.00403514,-0.00290066,0.00022704,-0.00262724,0.00436655,-0.00000847,-
 0.13052865,0.28620986,0.00000026,0.00000618,-0.00017714,-0.00000739,0.
 00000470,0.00019571,-0.00005093,-0.00001707,-0.00000247,0.00005822,0.0
 0002038,-0.00001373,0.00003528,-0.00001051,-0.00001173,-0.00003139,0.0
 0000672,-0.00001137,-0.00006470,-0.00001446,-0.00293622,0.00002243,-0.
 00000316,0.00015747,-0.00002274,-0.00005551,-0.00000313,-0.00030174,0.
 00047658,0.00207683,-0.00274149,0.00521422,-0.03951536,0.00007805,0.00
 022934,0.00707730,0.00004890,-0.00002537,0.00361946,0.00294616,-0.0058
 4116,0.02733746,0.00045727,0.00022712,-0.00000456,-0.00027965,0.000140
 67,0.00003572,-0.00009598,-0.00003670,-0.00000644,-0.00010241,-0.00003
 397,0.00002942,0.00008561,-0.00006720,0.00001704,0.00006800,-0.0000642
 8,-0.00001725,0.00161675,0.00479618,-0.00009301,0.00087450,-0.00048940
 ,-0.00006376,-0.00148442,0.00012099,-0.00005060,-0.02796053,0.07263779
 ,-0.00164996,-0.05186342,-0.02734682,0.00063328,-0.35054757,-0.0317109
 2,0.00067517,0.06340881,-0.02215739,0.00049464,-0.00051543,-0.00075763
 ,0.00002699,0.70400561,0.00014337,-0.00014472,0.00005189,0.00049989,0.
 00002861,0.00001606,0.00006188,0.00004521,-0.00001776,0.00003613,0.000
 01841,0.00001674,-0.00001375,0.00000975,-0.00001246,-0.00001195,0.0000
 1206,0.00001162,0.00192862,-0.00410719,0.00026057,-0.00055975,0.000518
 46,-0.00005067,0.00106159,0.00069858,-0.00011509,0.02856668,0.03057617
 ,-0.00043188,-0.02880414,-0.01614355,0.00020469,0.03482675,-0.13008052
 ,0.00156016,0.02215630,-0.05641434,0.00151582,-0.00084562,0.00013139,-
 0.00000891,-0.04532435,0.71584488,-0.00001125,-0.00001651,-0.00046913,
 -0.00002615,-0.00001257,0.00005134,-0.00008787,-0.00001979,0.00001815,
 0.00009824,0.00001740,0.00001537,-0.00001385,-0.00000491,-0.00000010,0
 .00000998,0.00000307,-0.00000074,-0.00009192,0.00023038,0.00620407,-0.
 00000054,0.00000431,-0.00050971,0.00001038,-0.00001931,-0.00049415,-0.
 00062845,-0.00045467,0.01074528,0.00063822,0.00018321,-0.00778564,-0.0
 0084282,0.00155357,-0.06208630,-0.00049455,0.00151580,0.00965809,0.000
 01989,-0.00001558,-0.00054063,0.00110064,-0.01350272,0.13158646,0.0001
 4671,0.00006315,0.00003109,-0.00055180,-0.00014590,-0.00006967,-0.0000
 0077,-0.00005146,0.00000575,0.00000126,-0.00003670,-0.00001503,0.00008
 434,-0.00000528,0.00003221,0.00008188,-0.00000704,-0.00001630,0.000658
 80,0.00169345,-0.00004030,0.00002660,-0.00017399,0.00005189,0.00008727
 ,-0.00052080,0.00001906,0.01227441,0.01470645,-0.00035086,-0.00145731,
 0.00346431,-0.00007946,-0.13107636,-0.12294626,0.00276694,-0.00051542,
 0.00084562,-0.00001989,0.00055819,0.00086776,-0.00001640,-0.01133146,-
 0.02852827,0.00065398,0.13580942,-0.00023031,-0.00000073,-0.00001831,0
 .00067014,0.00018342,0.00004814,0.00001152,0.00006167,0.00000018,0.000
 01494,0.00004303,0.00000679,-0.00005679,0.00001207,-0.00003382,-0.0000
 5509,0.00001498,0.00002566,-0.00149599,-0.00185687,-0.00001789,-0.0005
 2940,0.00091174,-0.00007078,0.00019390,0.00040900,-0.00000462,-0.01391
 012,-0.01927695,0.00049179,0.00403513,-0.00290073,0.00022704,-0.122419
 24,-0.26982690,0.00518485,0.00075764,0.00013137,-0.00001558,-0.0008677
 7,-0.00101962,0.00003178,0.00262738,0.00436679,-0.00000847,0.13053003,
 0.28620748,0.00000739,0.00000470,0.00019571,-0.00000026,0.00000618,-0.
 00017714,0.00003139,0.00000672,-0.00001137,-0.00003528,-0.00001051,-0.
 00001173,-0.00005822,0.00002038,-0.00001373,0.00005093,-0.00001707,-0.
 00000247,0.00006471,-0.00001446,-0.00293622,0.00002274,-0.00005551,-0.
 00000313,-0.00002243,-0.00000316,0.00015747,0.00030176,0.00047659,0.00
 207683,-0.00007806,0.00022935,0.00707730,0.00274142,0.00521402,-0.0395
 1535,-0.00002699,-0.00000890,-0.00054063,0.00001640,0.00003178,0.00035
 568,-0.00004892,-0.00002540,0.00361946,-0.00294606,-0.00584096,0.02733
 745,0.00040354,0.00004364,-0.00001027,0.00040354,-0.00004365,0.0000102
 7,-0.00009774,-0.00000615,-0.00002662,-0.00011162,-0.00002713,0.000038
 53,-0.00011162,0.00002713,-0.00003853,-0.00009774,0.00000615,0.0000266
 2,0.00261609,-0.00000003,0.,-0.00090602,-0.00018334,0.00003970,-0.0009
 0601,0.00018335,-0.00003970,0.00056150,-0.00000029,0.00000001,-0.03174
 180,0.02766352,-0.00062172,-0.03174274,-0.02766294,0.00062167,-0.15706
 319,0.10603349,-0.00245978,-0.00512184,-0.00097619,0.00002722,-0.15706
 464,-0.10603459,0.00245970,-0.00512182,0.00097625,-0.00002724,0.674087
 22,-0.00028805,-0.00014957,-0.00002180,0.00028805,-0.00014958,-0.00002
 180,0.00006605,0.00003993,0.00001331,0.00007867,0.00004317,-0.00002189
 ,-0.00007867,0.00004317,-0.00002189,-0.00006604,0.00003993,0.00001331,
 -0.00000003,-0.00333486,0.00004639,-0.00088354,0.00003406,0.00006506,0
 .00088355,0.00003405,0.00006506,-0.00000029,-0.06202547,0.00121146,0.0
 7539584,0.03122122,-0.00057524,-0.07539526,0.03122216,-0.00057535,0.05
 153131,-0.27617187,0.00496861,-0.00125646,0.00166892,0.00012722,-0.051
 53240,-0.27617043,0.00496851,0.00125652,0.00166890,0.00012723,-0.00000
 008,0.65402863,0.00000039,0.00000762,0.00003918,-0.00000039,0.00000762
 ,0.00003918,0.00000470,0.00000505,-0.00000241,-0.00000816,-0.00000569,
 -0.00000220,0.00000816,-0.00000569,-0.00000220,-0.00000470,0.00000505,
 -0.00000241,0.,0.00005564,-0.00061078,0.00001734,-0.00000611,0.0000154
 8,-0.00001734,-0.00000611,0.00001548,0.00000001,0.00125187,-0.00796355
 ,-0.00172182,-0.00055656,0.00709159,0.00172177,-0.00055661,0.00709160,
 -0.00121169,0.00495906,-0.06263515,0.00003114,0.00013401,0.00757846,0.
 00121161,0.00495891,-0.06263514,-0.00003115,0.00013401,0.00757846,0.00
 000031,-0.01188566,0.14158286,0.00006378,-0.00001192,-0.00001262,0.000
 10277,-0.00009211,0.00002348,-0.00003048,0.00000600,-0.00000759,-0.000
 03019,0.00000135,0.00001400,-0.00004931,0.00000995,-0.00001203,-0.0000
 5409,0.00000959,0.00000380,0.00065175,-0.00125002,0.00003304,-0.000706
 82,-0.00003856,-0.00000690,-0.00024752,0.00023635,-0.00000783,-0.00570
 046,0.00133101,-0.00002838,-0.00999196,-0.02869301,0.00065765,-0.00057
 722,0.00087343,-0.00001892,-0.13300367,-0.12570890,0.00290441,0.001046
 12,0.00029542,-0.00000758,-0.00158361,0.00299251,-0.00006961,0.0000837
 0,-0.00011429,0.00000236,0.01079774,0.01611899,-0.00037280,0.13726458,
 0.00005300,0.00000846,-0.00000385,0.00005590,-0.00000634,0.00000454,-0
 .00001205,0.00000085,-0.00000256,-0.00001228,-0.00000085,0.00000477,-0
 .00000883,-0.00000067,-0.00000417,-0.00000791,-0.00000234,0.00000211,0
 .00034837,0.00006345,0.00000211,-0.00007846,-0.00002079,-0.00000254,-0
 .00013796,0.00003360,-0.00000257,0.00063124,0.00143109,0.00014146,0.00
 241494,0.00480182,-0.00003353,0.00062124,0.00034436,-0.00001738,-0.123
 59754,-0.27120423,0.00541012,-0.00026763,0.00072599,-0.00011143,0.0042
 8312,-0.00255762,0.00020002,-0.00007974,0.00000468,-0.00003024,-0.0152
 8678,-0.01873290,0.00049482,0.13278182,0.28545972,-0.00000255,0.000000
 82,0.00003043,-0.00000353,-0.00000141,-0.00001738,0.00000035,0.0000021
 1,-0.00000253,0.00000100,-0.00000233,-0.00000407,-0.00000991,-0.000000
 33,-0.00000249,0.00000890,-0.00000013,-0.00000098,-0.00000808,0.000002
 68,0.00015781,0.00000361,-0.00000089,-0.00010437,0.00000402,-0.0000013
 3,-0.00002346,-0.00000896,0.00014036,0.00748362,-0.00005531,-0.0000328
 7,0.00332576,-0.00001327,-0.00001931,-0.00040539,0.00285839,0.00540418
 ,-0.03669022,0.00000398,-0.00011012,-0.00410703,-0.00010465,0.00019791
 ,0.00611602,0.00000210,-0.00002995,-0.00130422,0.00035036,0.00050204,0
 .00269289,-0.00306596,-0.00599565,0.02563903,0.00010277,0.00009211,-0.
 00002348,0.00006378,0.00001192,0.00001262,-0.00005409,-0.00000959,-0.0
 0000380,-0.00004931,-0.00000994,0.00001203,-0.00003019,-0.00000135,-0.
 00001400,-0.00003048,-0.00000600,0.00000759,0.00065176,0.00125001,-0.0
 0003304,-0.00024752,-0.00023635,0.00000783,-0.00070682,0.00003857,0.00
 000690,-0.00570047,-0.00133095,0.00002837,-0.00057724,-0.00087342,0.00
 001892,-0.00999172,0.02869314,-0.00065766,-0.00158368,-0.00299252,0.00
 006960,0.00008370,0.00011429,-0.00000236,-0.13300138,0.12570763,-0.002
 90449,0.00104612,-0.00029543,0.00000759,0.01079773,-0.01611926,0.00037
 282,0.00058644,-0.00083887,0.00001948,0.13726215,-0.00005590,-0.000006
 34,0.00000454,-0.00005300,0.00000846,-0.00000385,0.00000792,-0.0000023
 4,0.00000211,0.00000883,-0.00000067,-0.00000417,0.00001228,-0.00000085
 ,0.00000477,0.00001205,0.00000085,-0.00000256,-0.00034838,0.00006344,0
 .00000211,0.00013796,0.00003360,-0.00000257,0.00007847,-0.00002079,-0.
 00000254,-0.00063118,0.00143111,0.00014145,-0.00062123,0.00034438,-0.0
 0001739,-0.00241481,0.00480158,-0.00003352,-0.00428313,-0.00255755,0.0
 0020002,0.00007974,0.00000467,-0.00003024,0.12359627,-0.27120651,0.005
 41031,0.00026762,0.00072599,-0.00011143,0.01528651,-0.01873289,0.00049
 484,0.00083885,-0.00091345,0.00003738,-0.13278046,0.28546215,0.0000035
 3,-0.00000141,-0.00001738,0.00000255,0.00000082,0.00003043,-0.00000890
 ,-0.00000013,-0.00000098,0.00000991,-0.00000033,-0.00000249,-0.0000010
 0,-0.00000233,-0.00000407,-0.00000035,0.00000211,-0.00000253,0.0000080
 8,0.00000269,0.00015781,-0.00000402,-0.00000133,-0.00002346,-0.0000036
 1,-0.00000089,-0.00010437,0.00000894,0.00014036,0.00748362,0.00001327,
 -0.00001931,-0.00040539,0.00005529,-0.00003283,0.00332576,0.00010464,0
 .00019791,0.00611602,-0.00000209,-0.00002995,-0.00130422,-0.00285848,0
 .00540438,-0.03669023,-0.00000398,-0.00011012,-0.00410703,-0.00035035,
 0.00050202,0.00269289,-0.00001948,0.00003738,0.00069505,0.00306606,-0.
 00599586,0.02563903,-0.00040447,-0.00007958,0.00002241,-0.00040446,0.0
 0007959,-0.00002241,0.00010111,0.00000268,0.00003088,0.00010550,0.0000
 2005,-0.00004500,0.00010550,-0.00002005,0.00004500,0.00010111,-0.00000
 268,-0.00003088,-0.00214113,0.,0.,0.00099217,0.00022828,-0.00002610,0.
 00099217,-0.00022830,0.00002610,-0.00103083,0.,0.,0.00578043,0.0056107
 8,-0.00013642,0.00578034,-0.00561088,0.00013643,-0.03975496,0.01661415
 ,-0.00038281,-0.00051433,-0.00011692,0.00000152,-0.03975540,-0.0166137
 2,0.00038276,-0.00051434,0.00011693,-0.00000153,-0.28395530,0.00000091
 ,-0.00000015,0.00142682,-0.00147612,0.00003459,0.00142683,0.00147611,-
 0.00003458,1.57708675,-0.00008421,0.00000770,0.00000108,0.00008421,0.0
 0000770,0.00000109,0.00000439,0.00000691,0.00000161,0.00000556,0.00000
 566,-0.00000169,-0.00000556,0.00000566,-0.00000169,-0.00000439,0.00000
 691,0.00000161,0.,-0.00030723,-0.00001975,-0.00006004,0.00011883,-0.00
 000055,0.00006003,0.00011883,-0.00000055,0.,-0.00234129,0.00001117,0.0
 0388429,-0.00520284,0.00030315,-0.00388439,-0.00520275,0.00030315,0.03
 127755,0.00699058,-0.00011829,0.00148012,0.00023419,0.00000184,-0.0312
 7712,0.00699101,-0.00011833,-0.00148011,0.00023420,0.00000184,0.000000
 91,-0.08499901,0.00060231,0.00064897,0.00033527,-0.00009774,-0.0006489
 8,0.00033526,-0.00009774,-0.00000667,0.11771919,0.00000439,0.00000182,
 0.00001050,-0.00000439,0.00000182,0.00001050,0.00000162,-0.00000446,-0
 .00000143,-0.00000321,0.00000363,-0.00000218,0.00000321,0.00000363,-0.
 00000218,-0.00000162,-0.00000446,-0.00000143,0.,-0.00001457,-0.0011737
 7,0.00000835,-0.00000408,0.00012328,-0.00000835,-0.00000408,0.00012328
 ,0.,0.00001534,-0.00174860,-0.00008437,0.00030565,0.00786396,0.0000843
 7,0.00030565,0.00786396,-0.00072910,-0.00012061,0.00187596,-0.00003208
 ,0.00000120,0.00038197,0.00072904,-0.00012064,0.00187596,0.00003208,0.
 00000120,0.00038197,-0.00000015,0.00060128,-0.05922549,-0.00001430,-0.
 00009803,-0.00390762,0.00001430,-0.00009803,-0.00390762,0.00000102,-0.
 00072693,0.08657558,0.00039123,0.00006178,-0.00002663,0.00039123,-0.00
 006179,0.00002664,-0.00009024,0.00000346,-0.00002825,-0.00009317,-0.00
 001205,0.00004282,-0.00009317,0.00001205,-0.00004282,-0.00009024,-0.00
 000346,0.00002825,0.00193584,0.,0.,-0.00092623,-0.00024364,0.00001929,
 -0.00092623,0.00024365,-0.00001929,0.00034013,0.,0.,-0.00228342,-0.000
 28235,0.00001026,-0.00228341,0.00028238,-0.00001026,0.00506926,-0.0087
 5486,0.00020229,-0.00028942,-0.00004056,0.00000169,0.00506936,0.008754
 79,-0.00020229,-0.00028942,0.00004056,-0.00000169,-0.02562529,0.000000
 21,-0.00000003,-0.00004839,0.00061453,-0.00001457,-0.00004839,-0.00061
 452,0.00001457,-1.22542351,0.00000544,-0.00000081,1.24531349,0.0000118
 3,-0.00000687,-0.00000043,-0.00001183,-0.00000687,-0.00000043,-0.00000
 312,-0.00000089,-0.00000160,-0.00000305,-0.00000086,0.00000212,0.00000
 305,-0.00000086,0.00000212,0.00000312,-0.00000089,-0.00000160,0.,0.000
 04806,0.00000420,0.00002831,0.00001383,-0.00000121,-0.00002830,0.00001
 383,-0.00000121,0.,0.00060560,-0.00000554,-0.00070171,0.00101246,-0.00
 005413,0.00070174,0.00101245,-0.00005413,-0.00236873,-0.00241634,0.000
 08627,-0.00028061,-0.00009351,-0.00000116,0.00236866,-0.00241645,0.000
 08627,0.00028061,-0.00009351,-0.00000116,0.00000021,0.02042247,-0.0000
 8835,-0.00023542,0.00022990,0.00000458,0.00023542,0.00022991,0.0000045
 8,0.00000544,-0.03506480,-0.00004531,-0.00000561,0.01651335,0.00000018
 ,-0.00000039,-0.00001491,-0.00000018,-0.00000039,-0.00001491,0.0000031
 0,-0.00000038,0.00000210,-0.00000335,0.00000094,0.00000377,0.00000335,
 0.00000094,0.00000377,-0.00000310,-0.00000038,0.00000210,0.,0.00000153
 ,0.00018559,-0.00000070,0.00000045,-0.00000062,0.00000070,0.00000046,-
 0.00000062,0.,-0.00000623,0.00034311,0.00001484,-0.00005507,-0.0013301
 5,-0.00001485,-0.00005507,-0.00133015,0.00005591,0.00008678,0.00132157
 ,0.00000600,-0.00000094,-0.00015730,-0.00005590,0.00008679,0.00132157,
 -0.00000600,-0.00000094,-0.00015730,-0.00000003,-0.00008787,0.01666126
 ,0.00000528,0.00000461,0.00042915,-0.00000528,0.00000461,0.00042915,-0
 .00000081,-0.00004559,-0.03711658,0.00000084,0.00006614,0.01941940\\0.
 00000082,0.00000212,0.00000101,0.00000082,-0.00000212,-0.00000101,-0.0
 0000026,-0.00000026,0.,0.00000002,0.00000084,-0.00000075,0.00000002,-0
 .00000084,0.00000075,-0.00000026,0.00000026,0.,-0.00000010,0.,0.,-0.00
 000070,0.00000043,0.00000100,-0.00000070,-0.00000043,-0.00000100,0.000
 00018,0.,0.,0.00000001,0.00000001,-0.00000040,0.00000001,-0.00000001,0
 .00000040,0.00000003,0.,-0.00000042,0.,0.00000001,-0.00000105,0.000000
 03,0.,0.00000042,0.,-0.00000001,0.00000105,-0.00000003,0.,0.,0.,-0.000
 00001,-0.00000096,0.,0.00000001,0.00000096,0.00000021,0.,0.,-0.0000001
 0,0.,0.\\\@


 FROM WHENCE IT HAPPENS, THAT THEY WHICH TRUST TO BOOKS, DO AS THEY THAT CAST UP MANY LITTLE SUMMS INTO GREATER,
 WITHOUT CONSIDERING WETHER THOSE LITTLE SUMMES WERE RIGHTLY CAST UP OR NOT...
 AND AT LAST FINDING THE ERROUR VISIBLE, AND NOT MISTRUSTING THEIR FIRST GROUNDS,
 KNOW NOT WHICH WAY TO CLEERE THEMSELVES...
 BUT SPEND TIME IN FLUTTERING OVER THEIR BOOKES....
 AS BIRDS THAT ENTERING BY THE CHIMNEY, AND FINDING THEMSELVES INCLOSED IN A CHAMBER,
 FLUTTER AT THE FALSE LIGHT OF A GLASSE WINDOW,
 FOR WANT OF WIT TO CONSIDER WHICH WAY THEY CAME IN....
           LEVIATHAN
 Job cpu time:       0 days  0 hours 19 minutes 38.0 seconds.
 Elapsed time:       0 days  0 hours  0 minutes 59.6 seconds.
 File lengths (MBytes):  RWF=    141 Int=      0 D2E=      0 Chk=      6 Scr=      1
 Normal termination of Gaussian 16 at Wed Sep 13 17:26:02 2023.
