 Entering Gaussian System, Link 0=g16
 Input=reactant1.gjf
 Output=reactant1.log
 Initial command:
 /public/home/xiaoyuy/gaussian/g16/l1.exe "/public/home/xiaoyuy/yxy/Gau-99904.inp" -scrdir="/public/home/xiaoyuy/yxy/"
 Entering Link 1 = /public/home/xiaoyuy/gaussian/g16/l1.exe PID=     99906.
  
 Copyright (c) 1988-2019, Gaussian, Inc.  All Rights Reserved.
  
 This is part of the Gaussian(R) 16 program.  It is based on
 the Gaussian(R) 09 system (copyright 2009, Gaussian, Inc.),
 the Gaussian(R) 03 system (copyright 2003, Gaussian, Inc.),
 the Gaussian(R) 98 system (copyright 1998, Gaussian, Inc.),
 the Gaussian(R) 94 system (copyright 1995, Gaussian, Inc.),
 the Gaussian 92(TM) system (copyright 1992, Gaussian, Inc.),
 the Gaussian 90(TM) system (copyright 1990, Gaussian, Inc.),
 the Gaussian 88(TM) system (copyright 1988, Gaussian, Inc.),
 the Gaussian 86(TM) system (copyright 1986, Carnegie Mellon
 University), and the Gaussian 82(TM) system (copyright 1983,
 Carnegie Mellon University). Gaussian is a federally registered
 trademark of Gaussian, Inc.
  
 This software contains proprietary and confidential information,
 including trade secrets, belonging to Gaussian, Inc.
  
 This software is provided under written license and may be
 used, copied, transmitted, or stored only in accord with that
 written license.
  
 The following legend is applicable only to US Government
 contracts under FAR:
  
                    RESTRICTED RIGHTS LEGEND
  
 Use, reproduction and disclosure by the US Government is
 subject to restrictions as set forth in subparagraphs (a)
 and (c) of the Commercial Computer Software - Restricted
 Rights clause in FAR 52.227-19.
  
 Gaussian, Inc.
 340 Quinnipiac St., Bldg. 40, Wallingford CT 06492
  
  
 ---------------------------------------------------------------
 Warning -- This program may not be used in any manner that
 competes with the business of Gaussian, Inc. or will provide
 assistance to any competitor of Gaussian, Inc.  The licensee
 of this program is prohibited from giving any competitor of
 Gaussian, Inc. access to this program.  By using this program,
 the user acknowledges that Gaussian, Inc. is engaged in the
 business of creating and licensing software in the field of
 computational chemistry and represents and warrants to the
 licensee that it is not a competitor of Gaussian, Inc. and that
 it will not use this program in any manner prohibited above.
 ---------------------------------------------------------------
  

 Cite this work as:
 Gaussian 16, Revision C.01,
 M. J. Frisch, G. W. Trucks, H. B. Schlegel, G. E. Scuseria, 
 M. A. Robb, J. R. Cheeseman, G. Scalmani, V. Barone, 
 G. A. Petersson, H. Nakatsuji, X. Li, M. Caricato, A. V. Marenich, 
 J. Bloino, B. G. Janesko, R. Gomperts, B. Mennucci, H. P. Hratchian, 
 J. V. Ortiz, A. F. Izmaylov, J. L. Sonnenberg, D. Williams-Young, 
 F. Ding, F. Lipparini, F. Egidi, J. Goings, B. Peng, A. Petrone, 
 T. Henderson, D. Ranasinghe, V. G. Zakrzewski, J. Gao, N. Rega, 
 G. Zheng, W. Liang, M. Hada, M. Ehara, K. Toyota, R. Fukuda, 
 J. Hasegawa, M. Ishida, T. Nakajima, Y. Honda, O. Kitao, H. Nakai, 
 T. Vreven, K. Throssell, J. A. Montgomery, Jr., J. E. Peralta, 
 F. Ogliaro, M. J. Bearpark, J. J. Heyd, E. N. Brothers, K. N. Kudin, 
 V. N. Staroverov, T. A. Keith, R. Kobayashi, J. Normand, 
 K. Raghavachari, A. P. Rendell, J. C. Burant, S. S. Iyengar, 
 J. Tomasi, M. Cossi, J. M. Millam, M. Klene, C. Adamo, R. Cammi, 
 J. W. Ochterski, R. L. Martin, K. Morokuma, O. Farkas, 
 J. B. Foresman, and D. J. Fox, Gaussian, Inc., Wallingford CT, 2019.
 
 ******************************************
 Gaussian 16:  ES64L-G16RevC.01  3-Jul-2019
                 4-May-2023 
 ******************************************
 %chk=reactant1.chk
 ------------------------------------------------------
 # opt freq b3lyp/6-31g(d,p) geom=connectivity em=gd3bj
 ------------------------------------------------------
 1/18=20,19=15,26=3,38=1,57=2/1,3;
 2/9=110,12=2,17=6,18=5,40=1/2;
 3/5=1,6=6,7=101,11=2,25=1,30=1,71=1,74=-5,124=41/1,2,3;
 4//1;
 5/5=2,38=5/2;
 6/7=2,8=2,9=2,10=2,28=1/1;
 7//1,2,3,16;
 1/18=20,19=15,26=3/3(2);
 2/9=110/2;
 99//99;
 2/9=110/2;
 3/5=1,6=6,7=101,11=2,25=1,30=1,71=1,74=-5,124=41/1,2,3;
 4/5=5,16=3,69=1/1;
 5/5=2,38=5/2;
 7//1,2,3,16;
 1/18=20,19=15,26=3/3(-5);
 2/9=110/2;
 6/7=2,8=2,9=2,10=2,19=2,28=1/1;
 99/9=1/99;
 -------------------
 Title Card Required
 -------------------
 Symbolic Z-matrix:
 Charge =  0 Multiplicity = 1
 C                    -0.84521   0.3055    0. 
 C                     0.54995   0.3055    0. 
 C                     1.24748   1.51325   0. 
 C                     0.54983   2.72176  -0.0012 
 C                    -0.84499   2.72168  -0.00168 
 C                    -1.5426    1.51347  -0.00068 
 H                     1.09945  -0.64701   0.00132 
 H                     2.34716   1.51333   0.00063 
 H                    -1.39512   3.67396  -0.00263 
 H                    -2.6422    1.51366  -0.00086 
 B                     1.37537   4.15039  -0.00129 
 O                     1.76135   4.81658  -1.33501 
 H                     2.23161   5.63503  -1.16012 
 O                     1.7599    4.81759   1.33235 
 H                     2.23205   5.63493   1.15735 
 C                    -1.61515  -1.02822   0.00063 
 N                    -2.1884   -2.02123   0.0011 
 

 GradGradGradGradGradGradGradGradGradGradGradGradGradGradGradGradGradGrad
 Berny optimization.
 Initialization pass.
                           ----------------------------
                           !    Initial Parameters    !
                           ! (Angstroms and Degrees)  !
 --------------------------                            --------------------------
 ! Name  Definition              Value          Derivative Info.                !
 --------------------------------------------------------------------------------
 ! R1    R(1,2)                  1.3952         estimate D2E/DX2                !
 ! R2    R(1,6)                  1.3948         estimate D2E/DX2                !
 ! R3    R(1,16)                 1.54           estimate D2E/DX2                !
 ! R4    R(2,3)                  1.3947         estimate D2E/DX2                !
 ! R5    R(2,7)                  1.0997         estimate D2E/DX2                !
 ! R6    R(3,4)                  1.3954         estimate D2E/DX2                !
 ! R7    R(3,8)                  1.0997         estimate D2E/DX2                !
 ! R8    R(4,5)                  1.3948         estimate D2E/DX2                !
 ! R9    R(4,11)                 1.65           estimate D2E/DX2                !
 ! R10   R(5,6)                  1.3951         estimate D2E/DX2                !
 ! R11   R(5,9)                  1.0998         estimate D2E/DX2                !
 ! R12   R(6,10)                 1.0996         estimate D2E/DX2                !
 ! R13   R(11,12)                1.54           estimate D2E/DX2                !
 ! R14   R(11,14)                1.54           estimate D2E/DX2                !
 ! R15   R(12,13)                0.96           estimate D2E/DX2                !
 ! R16   R(14,15)                0.96           estimate D2E/DX2                !
 ! R17   R(16,17)                1.1466         estimate D2E/DX2                !
 ! A1    A(2,1,6)              119.9985         estimate D2E/DX2                !
 ! A2    A(2,1,16)             119.9972         estimate D2E/DX2                !
 ! A3    A(6,1,16)             120.0043         estimate D2E/DX2                !
 ! A4    A(1,2,3)              120.0086         estimate D2E/DX2                !
 ! A5    A(1,2,7)              119.9808         estimate D2E/DX2                !
 ! A6    A(3,2,7)              120.0106         estimate D2E/DX2                !
 ! A7    A(2,3,4)              119.9942         estimate D2E/DX2                !
 ! A8    A(2,3,8)              120.0128         estimate D2E/DX2                !
 ! A9    A(4,3,8)              119.993          estimate D2E/DX2                !
 ! A10   A(3,4,5)              119.994          estimate D2E/DX2                !
 ! A11   A(3,4,11)             119.9811         estimate D2E/DX2                !
 ! A12   A(5,4,11)             120.0249         estimate D2E/DX2                !
 ! A13   A(4,5,6)              120.0047         estimate D2E/DX2                !
 ! A14   A(4,5,9)              120.0113         estimate D2E/DX2                !
 ! A15   A(6,5,9)              119.984          estimate D2E/DX2                !
 ! A16   A(1,6,5)              120.0            estimate D2E/DX2                !
 ! A17   A(1,6,10)             120.008          estimate D2E/DX2                !
 ! A18   A(5,6,10)             119.992          estimate D2E/DX2                !
 ! A19   A(4,11,12)            120.0            estimate D2E/DX2                !
 ! A20   A(4,11,14)            120.0            estimate D2E/DX2                !
 ! A21   A(12,11,14)           120.0            estimate D2E/DX2                !
 ! A22   A(11,12,13)           109.5            estimate D2E/DX2                !
 ! A23   A(11,14,15)           109.5            estimate D2E/DX2                !
 ! A24   L(1,16,17,7,-1)       180.0            estimate D2E/DX2                !
 ! A25   L(1,16,17,7,-2)       180.0            estimate D2E/DX2                !
 ! D1    D(6,1,2,3)              0.0323         estimate D2E/DX2                !
 ! D2    D(6,1,2,7)            179.9532         estimate D2E/DX2                !
 ! D3    D(16,1,2,3)          -179.9729         estimate D2E/DX2                !
 ! D4    D(16,1,2,7)            -0.052          estimate D2E/DX2                !
 ! D5    D(2,1,6,5)              0.0149         estimate D2E/DX2                !
 ! D6    D(2,1,6,10)           179.9892         estimate D2E/DX2                !
 ! D7    D(16,1,6,5)          -179.9798         estimate D2E/DX2                !
 ! D8    D(16,1,6,10)           -0.0056         estimate D2E/DX2                !
 ! D9    D(1,2,3,4)             -0.0568         estimate D2E/DX2                !
 ! D10   D(1,2,3,8)            179.9619         estimate D2E/DX2                !
 ! D11   D(7,2,3,4)           -179.9777         estimate D2E/DX2                !
 ! D12   D(7,2,3,8)              0.041          estimate D2E/DX2                !
 ! D13   D(2,3,4,5)              0.0341         estimate D2E/DX2                !
 ! D14   D(2,3,4,11)          -179.9964         estimate D2E/DX2                !
 ! D15   D(8,3,4,5)           -179.9846         estimate D2E/DX2                !
 ! D16   D(8,3,4,11)            -0.0151         estimate D2E/DX2                !
 ! D17   D(3,4,5,6)              0.0131         estimate D2E/DX2                !
 ! D18   D(3,4,5,9)           -179.9995         estimate D2E/DX2                !
 ! D19   D(11,4,5,6)          -179.9563         estimate D2E/DX2                !
 ! D20   D(11,4,5,9)             0.031          estimate D2E/DX2                !
 ! D21   D(3,4,11,12)           90.0172         estimate D2E/DX2                !
 ! D22   D(3,4,11,14)          -89.9828         estimate D2E/DX2                !
 ! D23   D(5,4,11,12)          -90.0133         estimate D2E/DX2                !
 ! D24   D(5,4,11,14)           89.9867         estimate D2E/DX2                !
 ! D25   D(4,5,6,1)             -0.0376         estimate D2E/DX2                !
 ! D26   D(4,5,6,10)           179.9881         estimate D2E/DX2                !
 ! D27   D(9,5,6,1)            179.975          estimate D2E/DX2                !
 ! D28   D(9,5,6,10)             0.0007         estimate D2E/DX2                !
 ! D29   D(4,11,12,13)         179.8603         estimate D2E/DX2                !
 ! D30   D(14,11,12,13)         -0.1397         estimate D2E/DX2                !
 ! D31   D(4,11,14,15)        -179.9845         estimate D2E/DX2                !
 ! D32   D(12,11,14,15)          0.0155         estimate D2E/DX2                !
 --------------------------------------------------------------------------------
 Trust Radius=3.00D-01 FncErr=1.00D-07 GrdErr=1.00D-06 EigMax=2.50D+02 EigMin=1.00D-04
 Number of steps in this run=     84 maximum allowed number of steps=    102.
 GradGradGradGradGradGradGradGradGradGradGradGradGradGradGradGradGradGrad

                          Input orientation:                          
 ---------------------------------------------------------------------
 Center     Atomic      Atomic             Coordinates (Angstroms)
 Number     Number       Type             X           Y           Z
 ---------------------------------------------------------------------
      1          6           0       -0.845214    0.305499    0.000000
      2          6           0        0.549946    0.305499    0.000000
      3          6           0        1.247484    1.513250    0.000000
      4          6           0        0.549830    2.721759   -0.001199
      5          6           0       -0.844995    2.721681   -0.001678
      6          6           0       -1.542596    1.513475   -0.000682
      7          1           0        1.099454   -0.647014    0.001315
      8          1           0        2.347164    1.513330    0.000634
      9          1           0       -1.395117    3.673962   -0.002631
     10          1           0       -2.642200    1.513658   -0.000862
     11          5           0        1.375370    4.150389   -0.001288
     12          8           0        1.761349    4.816580   -1.335008
     13          1           0        2.231614    5.635032   -1.160115
     14          8           0        1.759896    4.817585    1.332350
     15          1           0        2.232050    5.634927    1.157353
     16          6           0       -1.615149   -1.028217    0.000630
     17          7           0       -2.188401   -2.021230    0.001099
 ---------------------------------------------------------------------
                    Distance matrix (angstroms):
                    1          2          3          4          5
     1  C    0.000000
     2  C    1.395160   0.000000
     3  C    2.416205   1.394712   0.000000
     4  C    2.790065   2.416260   1.395427   0.000000
     5  C    2.416183   2.789946   2.416356   1.394825   0.000000
     6  C    1.394829   2.416183   2.790080   2.416236   1.395138
     7  H    2.165414   1.099655   2.165330   3.413316   3.889601
     8  H    3.413229   2.165375   1.099680   2.165806   3.413209
     9  H    3.413055   3.889707   3.413506   2.165528   1.099761
    10  H    2.165365   3.413128   3.889684   3.412999   2.165471
    11  B    4.440065   3.932494   2.640238   1.650000   2.640308
    12  O    5.378315   4.857942   3.599763   2.763168   3.599917
    13  H    6.262321   5.707696   4.393571   3.557899   4.392620
    14  O    5.377795   4.857783   3.599494   2.763168   3.599708
    15  H    6.261934   5.707165   4.392841   3.557900   4.393012
    16  C    1.540000   2.542919   3.828019   4.330065   3.828169
    17  N    2.686600   3.593357   4.929285   5.476665   4.929498
                    6          7          8          9         10
     6  C    0.000000
     7  H    3.412938   0.000000
     8  H    3.889760   2.494768   0.000000
     9  H    2.165516   4.989362   4.321228   0.000000
    10  H    1.099604   4.320704   4.989364   2.494420   0.000000
    11  B    3.932918   4.805332   2.810421   2.811153   4.805541
    12  O    4.858702   5.663455   3.610898   3.611659   5.663963
    13  H    5.707554   6.488051   4.283587   4.282376   6.487191
    14  O    4.858042   5.663010   3.610603   3.611669   5.663200
    15  H    5.707483   6.487062   4.282384   4.283373   6.487266
    16  C    2.542728   2.741238   4.707376   4.707326   2.741526
    17  N    3.593216   3.563490   5.750171   5.750176   3.563898
                   11         12         13         14         15
    11  B    0.000000
    12  O    1.540000   0.000000
    13  H    2.068864   0.960000   0.000000
    14  O    1.540000   2.667358   2.665168   0.000000
    15  H    2.068864   2.665166   2.317468   0.960000   0.000000
    16  C    5.980065   6.880867   7.780990   6.880248   7.780516
    17  N    7.126665   8.008830   8.916462   8.008163   8.915943
                   16         17
    16  C    0.000000
    17  N    1.146600   0.000000
 Stoichiometry    C7H6BNO2
 Framework group  C1[X(C7H6BNO2)]
 Deg. of freedom    45
 Full point group                 C1      NOp   1
 Largest Abelian subgroup         C1      NOp   1
 Largest concise Abelian subgroup C1      NOp   1
                         Standard orientation:                         
 ---------------------------------------------------------------------
 Center     Atomic      Atomic             Coordinates (Angstroms)
 Number     Number       Type             X           Y           Z
 ---------------------------------------------------------------------
      1          6           0       -1.916087    0.000130   -0.000045
      2          6           0       -1.218380   -1.208041   -0.000395
      3          6           0        0.176332   -1.208105    0.000039
      4          6           0        0.873978    0.000409   -0.000376
      5          6           0        0.176371    1.208251   -0.000505
      6          6           0       -1.218767    1.208141    0.000056
      7          1           0       -1.768427   -2.160244    0.000302
      8          1           0        0.726341   -2.160359    0.000398
      9          1           0        0.725910    2.160869   -0.000841
     10          1           0       -1.768510    2.160460    0.000152
     11          5           0        2.523978   -0.000042    0.000049
     12          8           0        3.294321   -0.000507   -1.333432
     13          1           0        4.238199    0.001474   -1.158244
     14          8           0        3.293634    0.000003    1.333926
     15          1           0        4.237604   -0.000043    1.159223
     16          6           0       -3.456087   -0.000107    0.000105
     17          7           0       -4.602687   -0.000283    0.000218
 ---------------------------------------------------------------------
 Rotational constants (GHZ):           3.4035970           0.4813592           0.4683033
 Standard basis: 6-31G(d,p) (6D, 7F)
 There are   195 symmetry adapted cartesian basis functions of A   symmetry.
 There are   195 symmetry adapted basis functions of A   symmetry.
   195 basis functions,   350 primitive gaussians,   195 cartesian basis functions
    38 alpha electrons       38 beta electrons
       nuclear repulsion energy       492.7534745570 Hartrees.
 NAtoms=   17 NActive=   17 NUniq=   17 SFac= 1.00D+00 NAtFMM=   60 NAOKFM=F Big=F
 Integral buffers will be    131072 words long.
 Raffenetti 2 integral format.
 Two-electron integral symmetry is turned on.
 Nuclear repulsion after empirical dispersion term =      492.7231297727 Hartrees.
 One-electron integrals computed using PRISM.
 NBasis=   195 RedAO= T EigKep=  4.49D-04  NBF=   195
 NBsUse=   195 1.00D-06 EigRej= -1.00D+00 NBFU=   195
 ExpMin= 1.27D-01 ExpMax= 5.48D+03 ExpMxC= 8.25D+02 IAcc=3 IRadAn=         5 AccDes= 0.00D+00
 Harris functional with IExCor=  402 and IRadAn=       5 diagonalized for initial guess.
 HarFok:  IExCor=  402 AccDes= 0.00D+00 IRadAn=         5 IDoV= 1 UseB2=F ITyADJ=14
 ICtDFT=  3500011 ScaDFX=  1.000000  1.000000  1.000000  1.000000
 FoFCou: FMM=F IPFlag=           0 FMFlag=      100000 FMFlg1=           0
         NFxFlg=           0 DoJE=T BraDBF=F KetDBF=T FulRan=T
         wScrn=  0.000000 ICntrl=       500 IOpCl=  0 I1Cent=   200000004 NGrid=           0
         NMat0=    1 NMatS0=      1 NMatT0=    0 NMatD0=    1 NMtDS0=    0 NMtDT0=    0
 Petite list used in FoFCou.
 Requested convergence on RMS density matrix=1.00D-08 within 128 cycles.
 Requested convergence on MAX density matrix=1.00D-06.
 Requested convergence on             energy=1.00D-06.
 No special actions if energy rises.
 Integral accuracy reduced to 1.0D-05 until final iterations.
 Initial convergence to 1.0D-05 achieved.  Increase integral accuracy.
 SCF Done:  E(RB3LYP) =  -500.498148749     A.U. after   15 cycles
            NFock= 15  Conv=0.26D-08     -V/T= 2.0108

 **********************************************************************

            Population analysis using the SCF Density.

 **********************************************************************

 Orbital symmetries:
       Occupied  (A) (A) (A) (A) (A) (A) (A) (A) (A) (A) (A) (A)
                 (A) (A) (A) (A) (A) (A) (A) (A) (A) (A) (A) (A)
                 (A) (A) (A) (A) (A) (A) (A) (A) (A) (A) (A) (A)
                 (A) (A)
       Virtual   (A) (A) (A) (A) (A) (A) (A) (A) (A) (A) (A) (A)
                 (A) (A) (A) (A) (A) (A) (A) (A) (A) (A) (A) (A)
                 (A) (A) (A) (A) (A) (A) (A) (A) (A) (A) (A) (A)
                 (A) (A) (A) (A) (A) (A) (A) (A) (A) (A) (A) (A)
                 (A) (A) (A) (A) (A) (A) (A) (A) (A) (A) (A) (A)
                 (A) (A) (A) (A) (A) (A) (A) (A) (A) (A) (A) (A)
                 (A) (A) (A) (A) (A) (A) (A) (A) (A) (A) (A) (A)
                 (A) (A) (A) (A) (A) (A) (A) (A) (A) (A) (A) (A)
                 (A) (A) (A) (A) (A) (A) (A) (A) (A) (A) (A) (A)
                 (A) (A) (A) (A) (A) (A) (A) (A) (A) (A) (A) (A)
                 (A) (A) (A) (A) (A) (A) (A) (A) (A) (A) (A) (A)
                 (A) (A) (A) (A) (A) (A) (A) (A) (A) (A) (A) (A)
                 (A) (A) (A) (A) (A) (A) (A) (A) (A) (A) (A) (A)
                 (A)
 The electronic state is 1-A.
 Alpha  occ. eigenvalues --  -19.18172 -19.18172 -14.33358 -10.25212 -10.23116
 Alpha  occ. eigenvalues --  -10.22137 -10.22135 -10.21749 -10.21746 -10.21207
 Alpha  occ. eigenvalues --   -6.86042  -1.02151  -0.99806  -0.90932  -0.87956
 Alpha  occ. eigenvalues --   -0.77856  -0.76988  -0.64099  -0.63002  -0.56336
 Alpha  occ. eigenvalues --   -0.55058  -0.52066  -0.47989  -0.47460  -0.45245
 Alpha  occ. eigenvalues --   -0.44287  -0.42777  -0.40096  -0.37390  -0.36358
 Alpha  occ. eigenvalues --   -0.36300  -0.35181  -0.34716  -0.34623  -0.33691
 Alpha  occ. eigenvalues --   -0.32371  -0.27530  -0.27200
 Alpha virt. eigenvalues --   -0.04880  -0.02504  -0.01318   0.02655   0.04319
 Alpha virt. eigenvalues --    0.06806   0.06824   0.11475   0.12186   0.12282
 Alpha virt. eigenvalues --    0.15567   0.15985   0.18050   0.18375   0.24239
 Alpha virt. eigenvalues --    0.26871   0.27962   0.29443   0.31354   0.34056
 Alpha virt. eigenvalues --    0.36708   0.40763   0.43696   0.45746   0.48265
 Alpha virt. eigenvalues --    0.48716   0.50088   0.53332   0.54935   0.56937
 Alpha virt. eigenvalues --    0.56960   0.57183   0.57552   0.59869   0.62382
 Alpha virt. eigenvalues --    0.63617   0.63808   0.67244   0.68430   0.70347
 Alpha virt. eigenvalues --    0.70950   0.74479   0.76899   0.78635   0.78732
 Alpha virt. eigenvalues --    0.79259   0.81857   0.82297   0.84706   0.85017
 Alpha virt. eigenvalues --    0.87276   0.87968   0.88286   0.91779   0.96374
 Alpha virt. eigenvalues --    0.98002   0.98206   1.00962   1.06257   1.06667
 Alpha virt. eigenvalues --    1.09804   1.13133   1.13395   1.16730   1.17126
 Alpha virt. eigenvalues --    1.17579   1.21147   1.23179   1.26933   1.31299
 Alpha virt. eigenvalues --    1.33959   1.37832   1.38105   1.39186   1.39477
 Alpha virt. eigenvalues --    1.42084   1.44436   1.49745   1.51733   1.52485
 Alpha virt. eigenvalues --    1.53067   1.54390   1.55248   1.57765   1.58799
 Alpha virt. eigenvalues --    1.59347   1.62205   1.75448   1.76003   1.77444
 Alpha virt. eigenvalues --    1.78699   1.84077   1.84383   1.88599   1.90668
 Alpha virt. eigenvalues --    1.94624   1.95140   1.96489   1.97251   1.99142
 Alpha virt. eigenvalues --    2.05402   2.06664   2.07174   2.08797   2.10151
 Alpha virt. eigenvalues --    2.12704   2.13774   2.14388   2.27799   2.28298
 Alpha virt. eigenvalues --    2.32646   2.33655   2.35615   2.38017   2.38352
 Alpha virt. eigenvalues --    2.42360   2.45082   2.45885   2.48385   2.55779
 Alpha virt. eigenvalues --    2.55995   2.56667   2.57558   2.58318   2.62648
 Alpha virt. eigenvalues --    2.62713   2.62737   2.64215   2.67363   2.70612
 Alpha virt. eigenvalues --    2.75821   2.77880   2.78011   2.82643   2.93651
 Alpha virt. eigenvalues --    2.93676   3.01573   3.16632   3.19540   3.20739
 Alpha virt. eigenvalues --    3.27240   3.31321   3.34380   3.46120   3.46521
 Alpha virt. eigenvalues --    3.60129   3.77694   3.86837   4.00040   4.04344
 Alpha virt. eigenvalues --    4.13433   4.14578   4.19964   4.30549   4.40781
 Alpha virt. eigenvalues --    4.53685   4.83487
          Condensed to atoms (all electrons):
               1          2          3          4          5          6
     1  C    4.853746   0.542681  -0.024438  -0.030322  -0.024442   0.542960
     2  C    0.542681   4.861662   0.491747  -0.032659  -0.055406  -0.035997
     3  C   -0.024438   0.491747   4.907467   0.515189  -0.009115  -0.055412
     4  C   -0.030322  -0.032659   0.515189   4.796074   0.515536  -0.032649
     5  C   -0.024442  -0.055406  -0.009115   0.515536   4.907554   0.491384
     6  C    0.542960  -0.035997  -0.055412  -0.032649   0.491384   4.861841
     7  H   -0.039410   0.368925  -0.035689   0.004300   0.000579   0.004463
     8  H    0.003893  -0.039808   0.373660  -0.044520   0.005338   0.000536
     9  H    0.003894   0.000536   0.005335  -0.044532   0.373664  -0.039829
    10  H   -0.039400   0.004460   0.000579   0.004299  -0.035681   0.368935
    11  B   -0.000613   0.007601  -0.038154   0.360764  -0.038182   0.007602
    12  O    0.000000  -0.000006   0.000178  -0.028339   0.000182  -0.000006
    13  H    0.000000   0.000002   0.000013   0.003222   0.000013   0.000002
    14  O    0.000000  -0.000006   0.000182  -0.028350   0.000179  -0.000006
    15  H    0.000000   0.000002   0.000013   0.003222   0.000013   0.000002
    16  C    0.231067  -0.038227   0.004586   0.000488   0.004585  -0.038248
    17  N   -0.080250  -0.000100  -0.000054   0.000006  -0.000054  -0.000099
               7          8          9         10         11         12
     1  C   -0.039410   0.003893   0.003894  -0.039400  -0.000613   0.000000
     2  C    0.368925  -0.039808   0.000536   0.004460   0.007601  -0.000006
     3  C   -0.035689   0.373660   0.005335   0.000579  -0.038154   0.000178
     4  C    0.004300  -0.044520  -0.044532   0.004299   0.360764  -0.028339
     5  C    0.000579   0.005338   0.373664  -0.035681  -0.038182   0.000182
     6  C    0.004463   0.000536  -0.039829   0.368935   0.007602  -0.000006
     7  H    0.591533  -0.005261   0.000016  -0.000154  -0.000183   0.000000
     8  H   -0.005261   0.611107  -0.000147   0.000016  -0.009587   0.000160
     9  H    0.000016  -0.000147   0.611170  -0.005260  -0.009584   0.000160
    10  H   -0.000154   0.000016  -0.005260   0.591486  -0.000183   0.000000
    11  B   -0.000183  -0.009587  -0.009584  -0.000183   3.549983   0.344076
    12  O    0.000000   0.000160   0.000160   0.000000   0.344076   7.964418
    13  H   -0.000000  -0.000020  -0.000020  -0.000000  -0.019935   0.279963
    14  O    0.000000   0.000160   0.000159   0.000000   0.344087  -0.025723
    15  H   -0.000000  -0.000020  -0.000020  -0.000000  -0.019935  -0.001913
    16  C   -0.006059  -0.000148  -0.000148  -0.006055  -0.000012   0.000000
    17  N    0.000352  -0.000000  -0.000000   0.000352  -0.000000  -0.000000
              13         14         15         16         17
     1  C    0.000000   0.000000   0.000000   0.231067  -0.080250
     2  C    0.000002  -0.000006   0.000002  -0.038227  -0.000100
     3  C    0.000013   0.000182   0.000013   0.004586  -0.000054
     4  C    0.003222  -0.028350   0.003222   0.000488   0.000006
     5  C    0.000013   0.000179   0.000013   0.004585  -0.000054
     6  C    0.000002  -0.000006   0.000002  -0.038248  -0.000099
     7  H   -0.000000   0.000000  -0.000000  -0.006059   0.000352
     8  H   -0.000020   0.000160  -0.000020  -0.000148  -0.000000
     9  H   -0.000020   0.000159  -0.000020  -0.000148  -0.000000
    10  H   -0.000000   0.000000  -0.000000  -0.006055   0.000352
    11  B   -0.019935   0.344087  -0.019935  -0.000012  -0.000000
    12  O    0.279963  -0.025723  -0.001913   0.000000  -0.000000
    13  H    0.427303  -0.001913   0.003822   0.000000  -0.000000
    14  O   -0.001913   7.964414   0.279966   0.000000  -0.000000
    15  H    0.003822   0.279966   0.427297   0.000000  -0.000000
    16  C    0.000000   0.000000   0.000000   4.698541   0.876089
    17  N   -0.000000  -0.000000  -0.000000   0.876089   6.666585
 Mulliken charges:
               1
     1  C    0.060633
     2  C   -0.075406
     3  C   -0.136086
     4  C    0.038272
     5  C   -0.136146
     6  C   -0.075478
     7  H    0.116590
     8  H    0.104642
     9  H    0.104606
    10  H    0.116608
    11  B    0.522257
    12  O   -0.533150
    13  H    0.307545
    14  O   -0.533150
    15  H    0.307549
    16  C    0.273541
    17  N   -0.462825
 Sum of Mulliken charges =  -0.00000
 Mulliken charges with hydrogens summed into heavy atoms:
               1
     1  C    0.060633
     2  C    0.041184
     3  C   -0.031444
     4  C    0.038272
     5  C   -0.031540
     6  C    0.041130
    11  B    0.522257
    12  O   -0.225605
    14  O   -0.225601
    16  C    0.273541
    17  N   -0.462825
 Electronic spatial extent (au):  <R**2>=           2278.3154
 Charge=             -0.0000 electrons
 Dipole moment (field-independent basis, Debye):
    X=              6.2802    Y=              0.0038    Z=              0.0007  Tot=              6.2802
 Quadrupole moment (field-independent basis, Debye-Ang):
   XX=            -66.6091   YY=            -55.0752   ZZ=            -68.9929
   XY=              0.0112   XZ=              0.0055   YZ=             -0.0068
 Traceless Quadrupole moment (field-independent basis, Debye-Ang):
   XX=             -3.0500   YY=              8.4839   ZZ=             -5.4339
   XY=              0.0112   XZ=              0.0055   YZ=             -0.0068
 Octapole moment (field-independent basis, Debye-Ang**2):
  XXX=            274.4192  YYY=              0.0059  ZZZ=              0.0047  XYY=              3.4325
  XXY=              0.0729  XXZ=              0.0204  XZZ=             -3.2081  YZZ=              0.0046
  YYZ=              0.0030  XYZ=             -0.0207
 Hexadecapole moment (field-independent basis, Debye-Ang**3):
 XXXX=          -2524.5474 YYYY=           -279.9636 ZZZZ=           -201.0199 XXXY=              0.2160
 XXXZ=              0.1502 YYYX=             -0.0066 YYYZ=             -0.0135 ZZZX=              0.0158
 ZZZY=             -0.0072 XXYY=           -441.9420 XXZZ=           -456.6701 YYZZ=            -89.3900
 XXYZ=             -0.0863 YYXZ=             -0.0039 ZZXY=              0.0213
 N-N= 4.927231297727D+02 E-N=-2.151097545899D+03  KE= 4.951634415481D+02
 Calling FoFJK, ICntrl=      2127 FMM=F ISym2X=0 I1Cent= 0 IOpClX= 0 NMat=1 NMatS=1 NMatT=0.
 ***** Axes restored to original set *****
 -------------------------------------------------------------------
 Center     Atomic                   Forces (Hartrees/Bohr)
 Number     Number              X              Y              Z
 -------------------------------------------------------------------
      1        6          -0.024603133   -0.042836419    0.000002107
      2        6           0.012378630   -0.012672535    0.000126028
      3        6           0.005650029   -0.004696768   -0.000045820
      4        6           0.025310906    0.043124798    0.000024864
      5        6          -0.007394345    0.002442521    0.000012704
      6        6          -0.017058934    0.004706745   -0.000056862
      7        1          -0.005586330    0.008239614   -0.000047561
      8        1          -0.009816594   -0.001574078   -0.000007233
      9        1           0.003592121   -0.009311997    0.000015748
     10        1           0.009902085   -0.000749849    0.000006894
     11        5           0.027075075    0.046924043   -0.000017229
     12        8          -0.027126318   -0.046811876    0.076122179
     13        1           0.003526630    0.006082329    0.001148952
     14        8          -0.027044056   -0.046873902   -0.076115324
     15        1           0.003526920    0.006081308   -0.001150601
     16        6           0.046571840    0.080674514   -0.000034055
     17        7          -0.018904526   -0.032748449    0.000015209
 -------------------------------------------------------------------
 Cartesian Forces:  Max     0.080674514 RMS     0.026813045

 GradGradGradGradGradGradGradGradGradGradGradGradGradGradGradGradGradGrad
 Berny optimization.
 FormGI is forming the generalized inverse of G from B-inverse, IUseBI=4.
 Internal  Forces:  Max     0.090457371 RMS     0.017699585
 Search for a local minimum.
 Step number   1 out of a maximum of   84
 All quantities printed in internal units (Hartrees-Bohrs-Radians)
 Mixed Optimization -- RFO/linear search
 Second derivative matrix not updated -- first step.
 ITU=  0
     Eigenvalues ---    0.00230   0.00300   0.00369   0.00369   0.01562
     Eigenvalues ---    0.02152   0.02154   0.02154   0.02155   0.02155
     Eigenvalues ---    0.02155   0.02156   0.02157   0.05044   0.05044
     Eigenvalues ---    0.16000   0.16000   0.16000   0.16000   0.16000
     Eigenvalues ---    0.16000   0.20635   0.22000   0.22982   0.24000
     Eigenvalues ---    0.25000   0.25000   0.25000   0.25000   0.28519
     Eigenvalues ---    0.28519   0.28519   0.33709   0.33718   0.33720
     Eigenvalues ---    0.33726   0.42121   0.42482   0.46412   0.46453
     Eigenvalues ---    0.46466   0.46497   0.55473   0.55473   1.36980
 RFO step:  Lambda=-6.42930938D-02 EMin= 2.30000000D-03
 Linear search not attempted -- first point.
 Maximum step size (   0.300) exceeded in Quadratic search.
    -- Step size scaled by   0.695
 Iteration  1 RMS(Cart)=  0.05712787 RMS(Int)=  0.00010748
 Iteration  2 RMS(Cart)=  0.00017547 RMS(Int)=  0.00000033
 Iteration  3 RMS(Cart)=  0.00000003 RMS(Int)=  0.00000032
 Variable       Old X    -DE/DX   Delta X   Delta X   Delta X     New X
                                 (Linear)    (Quad)   (Total)
    R1        2.63647   0.00191   0.00000   0.00243   0.00243   2.63890
    R2        2.63584   0.00205   0.00000   0.00261   0.00261   2.63846
    R3        2.91018  -0.05534   0.00000  -0.11006  -0.11006   2.80012
    R4        2.63562  -0.00257   0.00000  -0.00338  -0.00338   2.63225
    R5        2.07805  -0.00993   0.00000  -0.01719  -0.01719   2.06086
    R6        2.63697   0.00566   0.00000   0.00752   0.00752   2.64450
    R7        2.07809  -0.00982   0.00000  -0.01700  -0.01700   2.06110
    R8        2.63584   0.00598   0.00000   0.00794   0.00794   2.64378
    R9        3.11805  -0.03998   0.00000  -0.10268  -0.10268   3.01536
   R10        2.63643  -0.00277   0.00000  -0.00365  -0.00365   2.63278
   R11        2.07825  -0.00986   0.00000  -0.01707  -0.01707   2.06117
   R12        2.07795  -0.00990   0.00000  -0.01714  -0.01714   2.06081
   R13        2.91018  -0.09046   0.00000  -0.17990  -0.17990   2.73028
   R14        2.91018  -0.09046   0.00000  -0.17990  -0.17990   2.73027
   R15        1.81414   0.00712   0.00000   0.00800   0.00800   1.82213
   R16        1.81414   0.00712   0.00000   0.00800   0.00800   1.82213
   R17        2.16676   0.03781   0.00000   0.01833   0.01833   2.18509
    A1        2.09437   0.00517   0.00000   0.01124   0.01124   2.10561
    A2        2.09435  -0.00259   0.00000  -0.00562  -0.00562   2.08872
    A3        2.09447  -0.00258   0.00000  -0.00562  -0.00562   2.08885
    A4        2.09455  -0.00338   0.00000  -0.00834  -0.00834   2.08620
    A5        2.09406   0.00094   0.00000   0.00185   0.00185   2.09591
    A6        2.09458   0.00244   0.00000   0.00649   0.00649   2.10107
    A7        2.09429   0.00232   0.00000   0.00591   0.00591   2.10020
    A8        2.09462  -0.00280   0.00000  -0.00802  -0.00802   2.08660
    A9        2.09427   0.00047   0.00000   0.00211   0.00211   2.09639
   A10        2.09429  -0.00303   0.00000  -0.00636  -0.00636   2.08793
   A11        2.09407   0.00155   0.00000   0.00326   0.00326   2.09733
   A12        2.09483   0.00148   0.00000   0.00310   0.00310   2.09793
   A13        2.09448   0.00229   0.00000   0.00584   0.00584   2.10031
   A14        2.09459   0.00046   0.00000   0.00207   0.00206   2.09666
   A15        2.09411  -0.00275   0.00000  -0.00790  -0.00790   2.08621
   A16        2.09440  -0.00336   0.00000  -0.00828  -0.00828   2.08611
   A17        2.09453   0.00090   0.00000   0.00173   0.00173   2.09627
   A18        2.09426   0.00246   0.00000   0.00655   0.00655   2.10081
   A19        2.09440  -0.00216   0.00000  -0.00478  -0.00478   2.08962
   A20        2.09440  -0.00217   0.00000  -0.00480  -0.00480   2.08960
   A21        2.09440   0.00433   0.00000   0.00957   0.00957   2.10397
   A22        1.91114   0.00027   0.00000   0.00085   0.00085   1.91199
   A23        1.91114   0.00027   0.00000   0.00084   0.00084   1.91198
   A24        3.14159  -0.00000   0.00000  -0.00001  -0.00001   3.14158
   A25        3.14159   0.00000   0.00000   0.00000   0.00000   3.14160
    D1        0.00056  -0.00002   0.00000  -0.00012  -0.00012   0.00044
    D2        3.14078   0.00002   0.00000   0.00015   0.00015   3.14093
    D3       -3.14112  -0.00001   0.00000  -0.00012  -0.00012  -3.14124
    D4       -0.00091   0.00002   0.00000   0.00016   0.00016  -0.00075
    D5        0.00026  -0.00001   0.00000  -0.00006  -0.00006   0.00020
    D6        3.14140   0.00001   0.00000   0.00005   0.00005   3.14145
    D7       -3.14124  -0.00001   0.00000  -0.00007  -0.00007  -3.14131
    D8       -0.00010   0.00000   0.00000   0.00004   0.00004  -0.00006
    D9       -0.00099   0.00003   0.00000   0.00021   0.00021  -0.00078
   D10        3.14093   0.00002   0.00000   0.00014   0.00014   3.14107
   D11       -3.14120  -0.00001   0.00000  -0.00006  -0.00006  -3.14127
   D12        0.00072  -0.00002   0.00000  -0.00013  -0.00013   0.00058
   D13        0.00060  -0.00001   0.00000  -0.00012  -0.00012   0.00048
   D14       -3.14153  -0.00000   0.00000  -0.00004  -0.00004  -3.14157
   D15       -3.14132  -0.00001   0.00000  -0.00005  -0.00005  -3.14137
   D16       -0.00026   0.00000   0.00000   0.00002   0.00002  -0.00024
   D17        0.00023  -0.00001   0.00000  -0.00006  -0.00006   0.00017
   D18       -3.14158   0.00000   0.00000   0.00001   0.00001  -3.14157
   D19       -3.14083  -0.00002   0.00000  -0.00013  -0.00013  -3.14096
   D20        0.00054  -0.00001   0.00000  -0.00006  -0.00006   0.00048
   D21        1.57110  -0.00001   0.00000  -0.00006  -0.00006   1.57103
   D22       -1.57050   0.00000   0.00000   0.00003   0.00003  -1.57047
   D23       -1.57103   0.00000   0.00000   0.00001   0.00001  -1.57102
   D24        1.57056   0.00001   0.00000   0.00010   0.00010   1.57066
   D25       -0.00066   0.00002   0.00000   0.00015   0.00015  -0.00050
   D26        3.14138   0.00001   0.00000   0.00005   0.00005   3.14143
   D27        3.14116   0.00001   0.00000   0.00008   0.00008   3.14123
   D28        0.00001  -0.00000   0.00000  -0.00003  -0.00003  -0.00001
   D29        3.13915   0.00003   0.00000   0.00029   0.00029   3.13944
   D30       -0.00244   0.00002   0.00000   0.00019   0.00019  -0.00225
   D31       -3.14132  -0.00001   0.00000  -0.00015  -0.00015  -3.14147
   D32        0.00027  -0.00001   0.00000  -0.00006  -0.00006   0.00021
         Item               Value     Threshold  Converged?
 Maximum Force            0.090457     0.000450     NO 
 RMS     Force            0.017700     0.000300     NO 
 Maximum Displacement     0.149292     0.001800     NO 
 RMS     Displacement     0.057087     0.001200     NO 
 Predicted change in Energy=-3.205046D-02
 GradGradGradGradGradGradGradGradGradGradGradGradGradGradGradGradGradGrad

                          Input orientation:                          
 ---------------------------------------------------------------------
 Center     Atomic      Atomic             Coordinates (Angstroms)
 Number     Number       Type             X           Y           Z
 ---------------------------------------------------------------------
      1          6           0       -0.831799    0.328685    0.000004
      2          6           0        0.564625    0.320822    0.000122
      3          6           0        1.257997    1.528909    0.000021
      4          6           0        0.562231    2.743097   -0.001140
      5          6           0       -0.836788    2.738591   -0.001619
      6          6           0       -1.536647    1.533922   -0.000744
      7          1           0        1.106011   -0.625868    0.001334
      8          1           0        2.348669    1.523197    0.000611
      9          1           0       -1.387322    3.680182   -0.002543
     10          1           0       -2.627173    1.529874   -0.000965
     11          5           0        1.360496    4.124730   -0.001276
     12          8           0        1.719575    4.744540   -1.256007
     13          1           0        2.192576    5.567347   -1.085709
     14          8           0        1.718307    4.745483    1.253348
     15          1           0        2.193081    5.567238    1.082903
     16          6           0       -1.572627   -0.954586    0.000570
     17          7           0       -2.150727   -1.955998    0.001009
 ---------------------------------------------------------------------
                    Distance matrix (angstroms):
                    1          2          3          4          5
     1  C    0.000000
     2  C    1.396447   0.000000
     3  C    2.409935   1.392925   0.000000
     4  C    2.787958   2.422277   1.399409   0.000000
     5  C    2.409912   2.794561   2.418980   1.399027   0.000000
     6  C    1.396211   2.426305   2.794649   2.422270   1.393209
     7  H    2.160158   1.090560   2.160130   3.412569   3.885107
     8  H    3.397387   2.151399   1.090687   2.163220   3.409446
     9  H    3.397226   3.885281   3.409648   2.163074   1.090726
    10  H    2.160144   3.413120   3.885171   3.412361   2.160202
    11  B    4.383619   3.886275   2.597845   1.595662   2.597968
    12  O    5.252318   4.741418   3.482950   2.630572   3.483147
    13  H    6.145665   5.599578   4.285001   3.436670   4.284175
    14  O    5.251859   4.741222   3.482680   2.630551   3.482968
    15  H    6.145324   5.599032   4.284287   3.436654   4.284569
    16  C    1.481759   2.488878   3.765658   4.269717   3.765770
    17  N    2.638057   3.543593   4.874831   5.426015   4.874998
                    6          7          8          9         10
     6  C    0.000000
     7  H    3.412965   0.000000
     8  H    3.885330   2.482474   0.000000
     9  H    2.151449   4.975820   4.313957   0.000000
    10  H    1.090534   4.310903   4.975847   2.482148   0.000000
    11  B    3.886608   4.757410   2.782888   2.783546   4.757602
    12  O    4.742017   5.549652   3.514527   3.515230   5.550083
    13  H    5.599354   6.381081   4.190418   4.189309   6.380269
    14  O    4.741476   5.549221   3.514233   3.515261   5.549472
    15  H    5.599356   6.380131   4.189252   4.190281   6.380433
    16  C    2.488769   2.698732   4.638531   4.638472   2.699002
    17  N    3.543535   3.517895   5.687650   5.687647   3.518282
                   11         12         13         14         15
    11  B    0.000000
    12  O    1.444802   0.000000
    13  H    1.987334   0.964232   0.000000
    14  O    1.444799   2.509356   2.524199   0.000000
    15  H    1.987328   2.524191   2.168612   0.964232   0.000000
    16  C    5.865379   6.700568   7.608703   6.700036   7.608297
    17  N    7.021677   7.839422   8.754767   7.838853   8.754327
                   16         17
    16  C    0.000000
    17  N    1.156298   0.000000
 Stoichiometry    C7H6BNO2
 Framework group  C1[X(C7H6BNO2)]
 Deg. of freedom    45
 Full point group                 C1      NOp   1
 Largest Abelian subgroup         C1      NOp   1
 Largest concise Abelian subgroup C1      NOp   1
                         Standard orientation:                         
 ---------------------------------------------------------------------
 Center     Atomic      Atomic             Coordinates (Angstroms)
 Number     Number       Type             X           Y           Z
 ---------------------------------------------------------------------
      1          6           0       -1.892517    0.000107   -0.000029
      2          6           0       -1.200995   -1.213096   -0.000379
      3          6           0        0.191925   -1.209393   -0.000050
      4          6           0        0.895441    0.000323   -0.000317
      5          6           0        0.191909    1.209587   -0.000333
      6          6           0       -1.201295    1.213209    0.000117
      7          1           0       -1.750066   -2.155349    0.000136
      8          1           0        0.732408   -2.156744    0.000174
      9          1           0        0.731990    2.157213   -0.000559
     10          1           0       -1.750157    2.155555    0.000256
     11          5           0        2.491102   -0.000020    0.000036
     12          8           0        3.207797   -0.000313   -1.254475
     13          1           0        4.156817    0.001458   -1.083885
     14          8           0        3.207210   -0.000151    1.254880
     15          1           0        4.156310   -0.000250    1.084726
     16          6           0       -3.374277   -0.000100    0.000083
     17          7           0       -4.530575   -0.000271    0.000168
 ---------------------------------------------------------------------
 Rotational constants (GHZ):           3.5614687           0.5032086           0.4855876
 Standard basis: 6-31G(d,p) (6D, 7F)
 There are   195 symmetry adapted cartesian basis functions of A   symmetry.
 There are   195 symmetry adapted basis functions of A   symmetry.
   195 basis functions,   350 primitive gaussians,   195 cartesian basis functions
    38 alpha electrons       38 beta electrons
       nuclear repulsion energy       501.2831153597 Hartrees.
 NAtoms=   17 NActive=   17 NUniq=   17 SFac= 1.00D+00 NAtFMM=   60 NAOKFM=F Big=F
 Integral buffers will be    131072 words long.
 Raffenetti 2 integral format.
 Two-electron integral symmetry is turned on.
 Nuclear repulsion after empirical dispersion term =      501.2522043160 Hartrees.
 One-electron integrals computed using PRISM.
 NBasis=   195 RedAO= T EigKep=  4.51D-04  NBF=   195
 NBsUse=   195 1.00D-06 EigRej= -1.00D+00 NBFU=   195
 Initial guess from the checkpoint file:  "reactant1.chk"
 B after Tr=     0.000000   -0.000000   -0.000000
         Rot=    1.000000   -0.000046   -0.000001    0.000001 Ang=  -0.01 deg.
 ExpMin= 1.27D-01 ExpMax= 5.48D+03 ExpMxC= 8.25D+02 IAcc=3 IRadAn=         5 AccDes= 0.00D+00
 Harris functional with IExCor=  402 and IRadAn=       5 diagonalized for initial guess.
 HarFok:  IExCor=  402 AccDes= 0.00D+00 IRadAn=         5 IDoV= 1 UseB2=F ITyADJ=14
 ICtDFT=  3500011 ScaDFX=  1.000000  1.000000  1.000000  1.000000
 FoFCou: FMM=F IPFlag=           0 FMFlag=      100000 FMFlg1=           0
         NFxFlg=           0 DoJE=T BraDBF=F KetDBF=T FulRan=T
         wScrn=  0.000000 ICntrl=       500 IOpCl=  0 I1Cent=   200000004 NGrid=           0
         NMat0=    1 NMatS0=      1 NMatT0=    0 NMatD0=    1 NMtDS0=    0 NMtDT0=    0
 Petite list used in FoFCou.
 Requested convergence on RMS density matrix=1.00D-08 within 128 cycles.
 Requested convergence on MAX density matrix=1.00D-06.
 Requested convergence on             energy=1.00D-06.
 No special actions if energy rises.
 Integral accuracy reduced to 1.0D-05 until final iterations.
 Initial convergence to 1.0D-05 achieved.  Increase integral accuracy.
 SCF Done:  E(RB3LYP) =  -500.533119076     A.U. after   13 cycles
            NFock= 13  Conv=0.27D-08     -V/T= 2.0100
 Calling FoFJK, ICntrl=      2127 FMM=F ISym2X=0 I1Cent= 0 IOpClX= 0 NMat=1 NMatS=1 NMatT=0.
 ***** Axes restored to original set *****
 -------------------------------------------------------------------
 Center     Atomic                   Forces (Hartrees/Bohr)
 Number     Number              X              Y              Z
 -------------------------------------------------------------------
      1        6          -0.015887078   -0.027686744   -0.000002914
      2        6           0.008414289   -0.003726619    0.000093969
      3        6          -0.000214987   -0.003196007   -0.000039452
      4        6           0.012600619    0.021389080    0.000023026
      5        6          -0.002970093   -0.001862260    0.000010219
      6        6          -0.007372036    0.005652262   -0.000044048
      7        1          -0.002814324    0.003217714   -0.000033978
      8        1          -0.003678129   -0.000537893   -0.000003299
      9        1           0.001405882   -0.003459716    0.000009688
     10        1           0.004180056   -0.000852984    0.000004886
     11        5           0.018009328    0.031192971   -0.000015639
     12        8          -0.014524339   -0.024999340    0.045569775
     13        1           0.001503207    0.002546693   -0.003588237
     14        8          -0.014462475   -0.025045692   -0.045564440
     15        1           0.001488037    0.002555918    0.003587653
     16        6           0.021661261    0.037526950   -0.000012646
     17        7          -0.007339219   -0.012714334    0.000005435
 -------------------------------------------------------------------
 Cartesian Forces:  Max     0.045569775 RMS     0.014787172

 GradGradGradGradGradGradGradGradGradGradGradGradGradGradGradGradGradGrad
 Berny optimization.
 Using GEDIIS/GDIIS optimizer.
 FormGI is forming the generalized inverse of G from B-inverse, IUseBI=4.
 Internal  Forces:  Max     0.049327328 RMS     0.009388129
 Search for a local minimum.
 Step number   2 out of a maximum of   84
 All quantities printed in internal units (Hartrees-Bohrs-Radians)
 Mixed Optimization -- RFO/linear search
 Update second derivatives using D2CorX and points    1    2
 DE= -3.50D-02 DEPred=-3.21D-02 R= 1.09D+00
 TightC=F SS=  1.41D+00  RLast= 3.00D-01 DXNew= 5.0454D-01 9.0000D-01
 Trust test= 1.09D+00 RLast= 3.00D-01 DXMaxT set to 5.05D-01
 ITU=  1  0
 Use linear search instead of GDIIS.
     Eigenvalues ---    0.00230   0.00300   0.00369   0.00369   0.01558
     Eigenvalues ---    0.02152   0.02154   0.02154   0.02155   0.02155
     Eigenvalues ---    0.02155   0.02156   0.02157   0.05044   0.05044
     Eigenvalues ---    0.15003   0.16000   0.16000   0.16000   0.16000
     Eigenvalues ---    0.16008   0.21318   0.21864   0.22000   0.23030
     Eigenvalues ---    0.24342   0.25000   0.25000   0.25000   0.27471
     Eigenvalues ---    0.28519   0.28641   0.33712   0.33718   0.33724
     Eigenvalues ---    0.33928   0.42145   0.42554   0.46396   0.46446
     Eigenvalues ---    0.46455   0.46515   0.55473   0.55548   1.37032
 RFO step:  Lambda=-3.66390766D-03 EMin= 2.30000000D-03
 Quartic linear search produced a step of  0.73579.
 Iteration  1 RMS(Cart)=  0.03698876 RMS(Int)=  0.00161921
 Iteration  2 RMS(Cart)=  0.00119897 RMS(Int)=  0.00000674
 Iteration  3 RMS(Cart)=  0.00000129 RMS(Int)=  0.00000670
 Iteration  4 RMS(Cart)=  0.00000000 RMS(Int)=  0.00000670
 Variable       Old X    -DE/DX   Delta X   Delta X   Delta X     New X
                                 (Linear)    (Quad)   (Total)
    R1        2.63890   0.00309   0.00179   0.00855   0.01033   2.64923
    R2        2.63846   0.00319   0.00192   0.00869   0.01060   2.64906
    R3        2.80012  -0.02865  -0.08098  -0.00907  -0.09005   2.71007
    R4        2.63225  -0.00075  -0.00249   0.00155  -0.00094   2.63131
    R5        2.06086  -0.00419  -0.01265   0.00276  -0.00989   2.05097
    R6        2.64450   0.00305   0.00554   0.00147   0.00702   2.65152
    R7        2.06110  -0.00368  -0.01251   0.00511  -0.00740   2.05370
    R8        2.64378   0.00324   0.00584   0.00162   0.00748   2.65125
    R9        3.01536  -0.01590  -0.07555   0.04084  -0.03471   2.98065
   R10        2.63278  -0.00089  -0.00268   0.00139  -0.00129   2.63149
   R11        2.06117  -0.00370  -0.01256   0.00511  -0.00745   2.05372
   R12        2.06081  -0.00418  -0.01261   0.00276  -0.00985   2.05096
   R13        2.73028  -0.04933  -0.13237  -0.02983  -0.16220   2.56808
   R14        2.73027  -0.04933  -0.13237  -0.02982  -0.16219   2.56808
   R15        1.82213   0.00228   0.00588  -0.00275   0.00313   1.82527
   R16        1.82213   0.00228   0.00588  -0.00275   0.00313   1.82526
   R17        2.18509   0.01468   0.01348  -0.00104   0.01244   2.19753
    A1        2.10561  -0.00028   0.00827  -0.01915  -0.01090   2.09471
    A2        2.08872   0.00014  -0.00414   0.00959   0.00547   2.09419
    A3        2.08885   0.00014  -0.00413   0.00956   0.00543   2.09429
    A4        2.08620  -0.00071  -0.00614   0.00789   0.00174   2.08794
    A5        2.09591  -0.00052   0.00136  -0.00881  -0.00745   2.08846
    A6        2.10107   0.00123   0.00478   0.00092   0.00571   2.10678
    A7        2.10020   0.00265   0.00435   0.00977   0.01413   2.11433
    A8        2.08660  -0.00190  -0.00590  -0.00145  -0.00735   2.07925
    A9        2.09639  -0.00075   0.00155  -0.00832  -0.00678   2.08961
   A10        2.08793  -0.00360  -0.00468  -0.01618  -0.02083   2.06709
   A11        2.09733   0.00183   0.00240   0.00817   0.01056   2.10789
   A12        2.09793   0.00177   0.00228   0.00801   0.01028   2.10821
   A13        2.10031   0.00263   0.00430   0.00974   0.01405   2.11436
   A14        2.09666  -0.00077   0.00152  -0.00842  -0.00691   2.08975
   A15        2.08621  -0.00187  -0.00581  -0.00132  -0.00714   2.07907
   A16        2.08611  -0.00070  -0.00610   0.00793   0.00182   2.08793
   A17        2.09627  -0.00055   0.00128  -0.00892  -0.00764   2.08863
   A18        2.10081   0.00124   0.00482   0.00099   0.00582   2.10662
   A19        2.08962  -0.00403  -0.00351  -0.02015  -0.02366   2.06596
   A20        2.08960  -0.00404  -0.00353  -0.02016  -0.02369   2.06590
   A21        2.10397   0.00807   0.00704   0.04031   0.04736   2.15133
   A22        1.91199   0.00739   0.00063   0.07669   0.07731   1.98930
   A23        1.91198   0.00739   0.00062   0.07670   0.07732   1.98930
   A24        3.14158  -0.00000  -0.00001  -0.00001  -0.00001   3.14157
   A25        3.14160   0.00000   0.00000  -0.00000  -0.00000   3.14160
    D1        0.00044  -0.00001  -0.00009   0.00003  -0.00006   0.00038
    D2        3.14093   0.00002   0.00011   0.00000   0.00011   3.14104
    D3       -3.14124  -0.00001  -0.00008   0.00005  -0.00003  -3.14127
    D4       -0.00075   0.00002   0.00012   0.00002   0.00014  -0.00061
    D5        0.00020  -0.00001  -0.00004   0.00004  -0.00001   0.00019
    D6        3.14145   0.00000   0.00003  -0.00001   0.00003   3.14148
    D7       -3.14131  -0.00001  -0.00005   0.00002  -0.00003  -3.14134
    D8       -0.00006   0.00000   0.00003  -0.00003   0.00000  -0.00006
    D9       -0.00078   0.00002   0.00016  -0.00007   0.00009  -0.00070
   D10        3.14107   0.00001   0.00010  -0.00004   0.00007   3.14113
   D11       -3.14127  -0.00001  -0.00005  -0.00003  -0.00008  -3.14134
   D12        0.00058  -0.00001  -0.00010   0.00000  -0.00010   0.00049
   D13        0.00048  -0.00001  -0.00009   0.00002  -0.00006   0.00042
   D14       -3.14157  -0.00000  -0.00003   0.00004   0.00001  -3.14156
   D15       -3.14137  -0.00000  -0.00003  -0.00001  -0.00004  -3.14141
   D16       -0.00024   0.00000   0.00002   0.00001   0.00003  -0.00021
   D17        0.00017  -0.00001  -0.00004   0.00005   0.00001   0.00017
   D18       -3.14157   0.00000   0.00001  -0.00002  -0.00002  -3.14159
   D19       -3.14096  -0.00001  -0.00010   0.00003  -0.00007  -3.14103
   D20        0.00048  -0.00001  -0.00004  -0.00005  -0.00009   0.00039
   D21        1.57103  -0.00000  -0.00005   0.00048   0.00042   1.57146
   D22       -1.57047   0.00000   0.00002  -0.00042  -0.00039  -1.57086
   D23       -1.57102   0.00000   0.00001   0.00049   0.00049  -1.57053
   D24        1.57066   0.00001   0.00007  -0.00040  -0.00032   1.57034
   D25       -0.00050   0.00001   0.00011  -0.00008   0.00003  -0.00048
   D26        3.14143   0.00000   0.00003  -0.00004  -0.00000   3.14143
   D27        3.14123   0.00001   0.00006  -0.00001   0.00005   3.14129
   D28       -0.00001  -0.00000  -0.00002   0.00004   0.00002   0.00000
   D29        3.13944   0.00003   0.00021  -0.00015   0.00005   3.13949
   D30       -0.00225   0.00002   0.00014   0.00076   0.00091  -0.00134
   D31       -3.14147  -0.00001  -0.00011   0.00031   0.00020  -3.14127
   D32        0.00021  -0.00001  -0.00004  -0.00060  -0.00065  -0.00044
         Item               Value     Threshold  Converged?
 Maximum Force            0.049327     0.000450     NO 
 RMS     Force            0.009388     0.000300     NO 
 Maximum Displacement     0.111331     0.001800     NO 
 RMS     Displacement     0.037290     0.001200     NO 
 Predicted change in Energy=-1.401333D-02
 GradGradGradGradGradGradGradGradGradGradGradGradGradGradGradGradGradGrad

                          Input orientation:                          
 ---------------------------------------------------------------------
 Center     Atomic      Atomic             Coordinates (Angstroms)
 Number     Number       Type             X           Y           Z
 ---------------------------------------------------------------------
      1          6           0       -0.830138    0.331463   -0.000000
      2          6           0        0.571774    0.331071    0.000170
      3          6           0        1.260533    1.541223    0.000039
      4          6           0        0.575764    2.765903   -0.001095
      5          6           0       -0.827091    2.746910   -0.001589
      6          6           0       -1.531092    1.545450   -0.000766
      7          1           0        1.108586   -0.612203    0.001284
      8          1           0        2.347261    1.531466    0.000608
      9          1           0       -1.378828    3.683220   -0.002471
     10          1           0       -2.616395    1.539155   -0.001002
     11          5           0        1.364783    4.131662   -0.001274
     12          8           0        1.687962    4.690561   -1.197096
     13          1           0        2.168103    5.525397   -1.123238
     14          8           0        1.686877    4.691426    1.194434
     15          1           0        2.168443    5.525425    1.120404
     16          6           0       -1.547282   -0.910455    0.000539
     17          7           0       -2.128778   -1.917510    0.000974
 ---------------------------------------------------------------------
                    Distance matrix (angstroms):
                    1          2          3          4          5
     1  C    0.000000
     2  C    1.401912   0.000000
     3  C    2.415455   1.392428   0.000000
     4  C    2.811237   2.434835   1.403122   0.000000
     5  C    2.415449   2.791613   2.410779   1.402983   0.000000
     6  C    1.401821   2.428325   2.791628   2.434819   1.392524
     7  H    2.156190   1.085327   2.158780   3.419869   3.876917
     8  H    3.396450   2.143199   1.086772   2.159176   3.399091
     9  H    3.396372   3.878371   3.399174   2.159144   1.086781
    10  H    2.156209   3.409383   3.876929   3.419764   2.158769
    11  B    4.388530   3.882442   2.592536   1.577292   2.592653
    12  O    5.174515   4.656659   3.396197   2.524225   3.395955
    13  H    6.101480   5.548993   4.237814   3.377803   4.236658
    14  O    5.174100   4.656438   3.395898   2.524184   3.395828
    15  H    6.101150   5.548476   4.237143   3.377773   4.237008
    16  C    1.434105   2.455970   3.727540   4.245342   3.727599
    17  N    2.596988   3.514129   4.842548   5.408226   4.842645
                    6          7          8          9         10
     6  C    0.000000
     7  H    3.409306   0.000000
     8  H    3.878378   2.475810   0.000000
     9  H    2.143186   4.963658   4.302766   0.000000
    10  H    1.085321   4.301608   4.963662   2.475599   0.000000
    11  B    3.882600   4.750779   2.779620   2.780019   4.750881
    12  O    4.656741   5.467275   3.442245   3.441957   5.467128
    13  H    5.548329   6.329080   4.152903   4.150958   6.327792
    14  O    4.656285   5.466855   3.441899   3.442036   5.466629
    15  H    5.548313   6.328206   4.151822   4.151831   6.327920
    16  C    2.455959   2.672563   4.596787   4.596764   2.672750
    17  N    3.514160   3.490610   5.650696   5.650718   3.490889
                   11         12         13         14         15
    11  B    0.000000
    12  O    1.358971   0.000000
    13  H    1.961280   0.965889   0.000000
    14  O    1.358969   2.391531   2.509719   0.000000
    15  H    1.961276   2.509715   2.243642   0.965888   0.000000
    16  C    5.822635   6.578185   7.515793   6.577708   7.515402
    17  N    6.985518   7.724602   8.667404   7.724092   8.666978
                   16         17
    16  C    0.000000
    17  N    1.162883   0.000000
 Stoichiometry    C7H6BNO2
 Framework group  C1[X(C7H6BNO2)]
 Deg. of freedom    45
 Full point group                 C1      NOp   1
 Largest Abelian subgroup         C1      NOp   1
 Largest concise Abelian subgroup C1      NOp   1
                         Standard orientation:                         
 ---------------------------------------------------------------------
 Center     Atomic      Atomic             Coordinates (Angstroms)
 Number     Number       Type             X           Y           Z
 ---------------------------------------------------------------------
      1          6           0       -1.890229    0.000075   -0.000031
      2          6           0       -1.189514   -1.214156   -0.000392
      3          6           0        0.202887   -1.205451   -0.000092
      4          6           0        0.921009   -0.000025   -0.000268
      5          6           0        0.203036    1.205328   -0.000242
      6          6           0       -1.189460    1.214169    0.000162
      7          1           0       -1.737932   -2.150731   -0.000020
      8          1           0        0.737878   -2.151420    0.000059
      9          1           0        0.737960    2.151346   -0.000380
     10          1           0       -1.737639    2.150877    0.000333
     11          5           0        2.498301   -0.000329    0.000034
     12          8           0        3.144276    0.000025   -1.195591
     13          1           0        4.107313    0.001661   -1.121438
     14          8           0        3.143753   -0.000070    1.195940
     15          1           0        4.106822    0.000004    1.122204
     16          6           0       -3.324333    0.000065    0.000070
     17          7           0       -4.487217    0.000034    0.000150
 ---------------------------------------------------------------------
 Rotational constants (GHZ):           3.6839816           0.5173472           0.4966898
 Standard basis: 6-31G(d,p) (6D, 7F)
 There are   195 symmetry adapted cartesian basis functions of A   symmetry.
 There are   195 symmetry adapted basis functions of A   symmetry.
   195 basis functions,   350 primitive gaussians,   195 cartesian basis functions
    38 alpha electrons       38 beta electrons
       nuclear repulsion energy       507.4328792091 Hartrees.
 NAtoms=   17 NActive=   17 NUniq=   17 SFac= 1.00D+00 NAtFMM=   60 NAOKFM=F Big=F
 Integral buffers will be    131072 words long.
 Raffenetti 2 integral format.
 Two-electron integral symmetry is turned on.
 Nuclear repulsion after empirical dispersion term =      507.4016459193 Hartrees.
 One-electron integrals computed using PRISM.
 NBasis=   195 RedAO= T EigKep=  4.56D-04  NBF=   195
 NBsUse=   195 1.00D-06 EigRej= -1.00D+00 NBFU=   195
 Initial guess from the checkpoint file:  "reactant1.chk"
 B after Tr=     0.000000    0.000000    0.000000
         Rot=    1.000000   -0.000031   -0.000001    0.000011 Ang=  -0.00 deg.
 ExpMin= 1.27D-01 ExpMax= 5.48D+03 ExpMxC= 8.25D+02 IAcc=3 IRadAn=         5 AccDes= 0.00D+00
 Harris functional with IExCor=  402 and IRadAn=       5 diagonalized for initial guess.
 HarFok:  IExCor=  402 AccDes= 0.00D+00 IRadAn=         5 IDoV= 1 UseB2=F ITyADJ=14
 ICtDFT=  3500011 ScaDFX=  1.000000  1.000000  1.000000  1.000000
 FoFCou: FMM=F IPFlag=           0 FMFlag=      100000 FMFlg1=           0
         NFxFlg=           0 DoJE=T BraDBF=F KetDBF=T FulRan=T
         wScrn=  0.000000 ICntrl=       500 IOpCl=  0 I1Cent=   200000004 NGrid=           0
         NMat0=    1 NMatS0=      1 NMatT0=    0 NMatD0=    1 NMtDS0=    0 NMtDT0=    0
 Petite list used in FoFCou.
 Requested convergence on RMS density matrix=1.00D-08 within 128 cycles.
 Requested convergence on MAX density matrix=1.00D-06.
 Requested convergence on             energy=1.00D-06.
 No special actions if energy rises.
 Integral accuracy reduced to 1.0D-05 until final iterations.
 Initial convergence to 1.0D-05 achieved.  Increase integral accuracy.
 SCF Done:  E(RB3LYP) =  -500.543908902     A.U. after   13 cycles
            NFock= 13  Conv=0.27D-08     -V/T= 2.0092
 Calling FoFJK, ICntrl=      2127 FMM=F ISym2X=0 I1Cent= 0 IOpClX= 0 NMat=1 NMatS=1 NMatT=0.
 ***** Axes restored to original set *****
 -------------------------------------------------------------------
 Center     Atomic                   Forces (Hartrees/Bohr)
 Number     Number              X              Y              Z
 -------------------------------------------------------------------
      1        6          -0.001041826   -0.001873861   -0.000011347
      2        6           0.002882388    0.000726155    0.000075534
      3        6          -0.001425757   -0.001049549   -0.000036866
      4        6           0.001915788    0.003083034    0.000021005
      5        6          -0.000297797   -0.001774443    0.000012707
      6        6          -0.000795612    0.002943019   -0.000037167
      7        1          -0.000445813    0.000431208   -0.000024904
      8        1          -0.000573485   -0.000553225   -0.000001231
      9        1          -0.000178070   -0.000769535    0.000005291
     10        1           0.000594029   -0.000183998    0.000003119
     11        5          -0.003305898   -0.005552506   -0.000009757
     12        8           0.001338559    0.002342201   -0.007425836
     13        1          -0.000176604   -0.000366316   -0.001890349
     14        8           0.001355034    0.002334256    0.007426673
     15        1          -0.000197665   -0.000353647    0.001890538
     16        6           0.000724782    0.001261449    0.000002337
     17        7          -0.000372054   -0.000644241    0.000000252
 -------------------------------------------------------------------
 Cartesian Forces:  Max     0.007426673 RMS     0.002082048

 GradGradGradGradGradGradGradGradGradGradGradGradGradGradGradGradGradGrad
 Berny optimization.
 Using GEDIIS/GDIIS optimizer.
 FormGI is forming the generalized inverse of G from B-inverse, IUseBI=4.
 Internal  Forces:  Max     0.009288010 RMS     0.001928250
 Search for a local minimum.
 Step number   3 out of a maximum of   84
 All quantities printed in internal units (Hartrees-Bohrs-Radians)
 Mixed Optimization -- RFO/linear search
 Update second derivatives using D2CorX and points    1    2    3
 DE= -1.08D-02 DEPred=-1.40D-02 R= 7.70D-01
 TightC=F SS=  1.41D+00  RLast= 2.82D-01 DXNew= 8.4853D-01 8.4677D-01
 Trust test= 7.70D-01 RLast= 2.82D-01 DXMaxT set to 8.47D-01
 ITU=  1  1  0
 Use linear search instead of GDIIS.
     Eigenvalues ---    0.00230   0.00303   0.00369   0.00369   0.01544
     Eigenvalues ---    0.02152   0.02154   0.02154   0.02155   0.02155
     Eigenvalues ---    0.02155   0.02156   0.02157   0.05044   0.05044
     Eigenvalues ---    0.15077   0.16000   0.16000   0.16000   0.16001
     Eigenvalues ---    0.16018   0.21341   0.22000   0.22809   0.23324
     Eigenvalues ---    0.24284   0.25000   0.25000   0.25000   0.28519
     Eigenvalues ---    0.28523   0.33711   0.33716   0.33722   0.33724
     Eigenvalues ---    0.41130   0.42103   0.43262   0.46426   0.46455
     Eigenvalues ---    0.46511   0.46568   0.55473   0.55664   1.36577
 RFO step:  Lambda=-7.15680168D-04 EMin= 2.29999999D-03
 Quartic linear search produced a step of -0.06209.
 Iteration  1 RMS(Cart)=  0.01692157 RMS(Int)=  0.00016366
 Iteration  2 RMS(Cart)=  0.00020269 RMS(Int)=  0.00001392
 Iteration  3 RMS(Cart)=  0.00000002 RMS(Int)=  0.00001392
 Variable       Old X    -DE/DX   Delta X   Delta X   Delta X     New X
                                 (Linear)    (Quad)   (Total)
    R1        2.64923   0.00097  -0.00064   0.00266   0.00202   2.65125
    R2        2.64906   0.00101  -0.00066   0.00276   0.00210   2.65116
    R3        2.71007  -0.00071   0.00559  -0.01466  -0.00907   2.70100
    R4        2.63131  -0.00151   0.00006  -0.00326  -0.00320   2.62811
    R5        2.05097  -0.00060   0.00061  -0.00326  -0.00265   2.04832
    R6        2.65152   0.00035  -0.00044   0.00139   0.00095   2.65247
    R7        2.05370  -0.00057   0.00046  -0.00305  -0.00259   2.05111
    R8        2.65125   0.00041  -0.00046   0.00155   0.00108   2.65234
    R9        2.98065  -0.00188   0.00216  -0.01842  -0.01626   2.96439
   R10        2.63149  -0.00155   0.00008  -0.00338  -0.00330   2.62819
   R11        2.05372  -0.00057   0.00046  -0.00307  -0.00261   2.05111
   R12        2.05096  -0.00059   0.00061  -0.00325  -0.00264   2.04832
   R13        2.56808   0.00929   0.01007   0.00913   0.01920   2.58729
   R14        2.56808   0.00929   0.01007   0.00914   0.01921   2.58729
   R15        1.82527  -0.00055  -0.00019  -0.00031  -0.00050   1.82476
   R16        1.82526  -0.00055  -0.00019  -0.00031  -0.00050   1.82476
   R17        2.19753   0.00074  -0.00077   0.00195   0.00118   2.19871
    A1        2.09471  -0.00045   0.00068  -0.00120  -0.00052   2.09419
    A2        2.09419   0.00023  -0.00034   0.00062   0.00028   2.09447
    A3        2.09429   0.00022  -0.00034   0.00058   0.00025   2.09453
    A4        2.08794  -0.00012  -0.00011  -0.00098  -0.00109   2.08685
    A5        2.08846  -0.00012   0.00046  -0.00116  -0.00070   2.08776
    A6        2.10678   0.00024  -0.00035   0.00214   0.00179   2.10857
    A7        2.11433   0.00083  -0.00088   0.00439   0.00352   2.11785
    A8        2.07925  -0.00099   0.00046  -0.00596  -0.00551   2.07374
    A9        2.08961   0.00016   0.00042   0.00157   0.00199   2.09160
   A10        2.06709  -0.00096   0.00129  -0.00561  -0.00432   2.06277
   A11        2.10789   0.00051  -0.00066   0.00294   0.00228   2.11017
   A12        2.10821   0.00045  -0.00064   0.00268   0.00204   2.11024
   A13        2.11436   0.00082  -0.00087   0.00435   0.00348   2.11784
   A14        2.08975   0.00015   0.00043   0.00149   0.00192   2.09167
   A15        2.07907  -0.00097   0.00044  -0.00584  -0.00540   2.07368
   A16        2.08793  -0.00012  -0.00011  -0.00095  -0.00106   2.08687
   A17        2.08863  -0.00013   0.00047  -0.00127  -0.00080   2.08783
   A18        2.10662   0.00025  -0.00036   0.00222   0.00186   2.10848
   A19        2.06596  -0.00319   0.00147  -0.01343  -0.01196   2.05399
   A20        2.06590  -0.00319   0.00147  -0.01344  -0.01197   2.05393
   A21        2.15133   0.00638  -0.00294   0.02687   0.02392   2.17524
   A22        1.98930   0.00338  -0.00480   0.02452   0.01972   2.00902
   A23        1.98930   0.00338  -0.00480   0.02452   0.01972   2.00902
   A24        3.14157   0.00000   0.00000  -0.00000  -0.00000   3.14157
   A25        3.14160   0.00000   0.00000   0.00000   0.00000   3.14160
    D1        0.00038  -0.00001   0.00000  -0.00047  -0.00046  -0.00008
    D2        3.14104   0.00001  -0.00001   0.00063   0.00062  -3.14152
    D3       -3.14127  -0.00001   0.00000  -0.00044  -0.00044   3.14148
    D4       -0.00061   0.00001  -0.00001   0.00065   0.00064   0.00003
    D5        0.00019  -0.00001   0.00000  -0.00024  -0.00024  -0.00004
    D6        3.14148   0.00000  -0.00000   0.00016   0.00016  -3.14155
    D7       -3.14134  -0.00001   0.00000  -0.00026  -0.00026   3.14158
    D8       -0.00006   0.00000  -0.00000   0.00014   0.00014   0.00008
    D9       -0.00070   0.00002  -0.00001   0.00085   0.00085   0.00015
   D10        3.14113   0.00001  -0.00000   0.00057   0.00056  -3.14149
   D11       -3.14134  -0.00001   0.00000  -0.00025  -0.00024  -3.14159
   D12        0.00049  -0.00001   0.00001  -0.00054  -0.00053  -0.00004
   D13        0.00042  -0.00001   0.00000  -0.00052  -0.00052  -0.00010
   D14       -3.14156  -0.00000  -0.00000  -0.00012  -0.00012   3.14150
   D15       -3.14141  -0.00000   0.00000  -0.00024  -0.00023   3.14154
   D16       -0.00021   0.00000  -0.00000   0.00017   0.00017  -0.00004
   D17        0.00017  -0.00001  -0.00000  -0.00019  -0.00020  -0.00002
   D18       -3.14159   0.00000   0.00000   0.00008   0.00008  -3.14150
   D19       -3.14103  -0.00001   0.00000  -0.00060  -0.00059   3.14156
   D20        0.00039  -0.00001   0.00001  -0.00032  -0.00031   0.00008
   D21        1.57146  -0.00002  -0.00003  -0.00311  -0.00310   1.56836
   D22       -1.57086   0.00002   0.00002   0.00406   0.00404  -1.56682
   D23       -1.57053  -0.00001  -0.00003  -0.00270  -0.00269  -1.57322
   D24        1.57034   0.00002   0.00002   0.00447   0.00445   1.57479
   D25       -0.00048   0.00001  -0.00000   0.00057   0.00057   0.00009
   D26        3.14143   0.00000   0.00000   0.00017   0.00017  -3.14159
   D27        3.14129   0.00001  -0.00000   0.00030   0.00029   3.14158
   D28        0.00000  -0.00000  -0.00000  -0.00011  -0.00011  -0.00011
   D29        3.13949   0.00004  -0.00000   0.00939   0.00942  -3.13427
   D30       -0.00134   0.00001  -0.00006   0.00186   0.00176   0.00042
   D31       -3.14127  -0.00002  -0.00001  -0.00539  -0.00545   3.13647
   D32       -0.00044   0.00001   0.00004   0.00214   0.00222   0.00178
         Item               Value     Threshold  Converged?
 Maximum Force            0.009288     0.000450     NO 
 RMS     Force            0.001928     0.000300     NO 
 Maximum Displacement     0.089538     0.001800     NO 
 RMS     Displacement     0.016993     0.001200     NO 
 Predicted change in Energy=-4.024427D-04
 GradGradGradGradGradGradGradGradGradGradGradGradGradGradGradGradGradGrad

                          Input orientation:                          
 ---------------------------------------------------------------------
 Center     Atomic      Atomic             Coordinates (Angstroms)
 Number     Number       Type             X           Y           Z
 ---------------------------------------------------------------------
      1          6           0       -0.828157    0.334806    0.000023
      2          6           0        0.574821    0.335899    0.000609
      3          6           0        1.260141    1.546057    0.000112
      4          6           0        0.576797    2.772110   -0.000785
      5          6           0       -0.826569    2.748963   -0.001300
      6          6           0       -1.530318    1.549380   -0.000964
      7          1           0        1.111281   -0.605964    0.001306
      8          1           0        2.345460    1.532671    0.000476
      9          1           0       -1.382154    3.681390   -0.002079
     10          1           0       -2.614216    1.541646   -0.001371
     11          5           0        1.360267    4.131138   -0.001215
     12          8           0        1.680971    4.680118   -1.213772
     13          1           0        2.168188    5.512695   -1.170620
     14          8           0        1.681667    4.680400    1.211029
     15          1           0        2.167197    5.513937    1.167402
     16          6           0       -1.541936   -0.903516    0.000387
     17          7           0       -2.122956   -1.911565    0.000681
 ---------------------------------------------------------------------
                    Distance matrix (angstroms):
                    1          2          3          4          5
     1  C    0.000000
     2  C    1.402979   0.000000
     3  C    2.414150   1.390736   0.000000
     4  C    2.813245   2.436212   1.403626   0.000000
     5  C    2.414158   2.790479   2.408598   1.403557   0.000000
     6  C    1.402932   2.429845   2.790461   2.436186   1.390778
     7  H    2.155567   1.083926   2.157164   3.420097   3.874378
     8  H    3.392157   2.137154   1.085401   2.159717   3.397225
     9  H    3.392129   3.875832   3.397261   2.159695   1.085402
    10  H    2.155567   3.409367   3.874360   3.420030   2.157150
    11  B    4.381933   3.875663   2.587019   1.568687   2.587017
    12  O    5.162437   4.644408   3.387174   2.516154   3.389278
    13  H    6.095820   5.541643   4.234310   3.378142   4.239586
    14  O    5.162358   4.643804   3.386460   2.516108   3.389902
    15  H    6.095763   5.541584   4.234311   3.378113   4.239526
    16  C    1.429308   2.452918   3.721833   4.242553   3.721875
    17  N    2.592815   3.511282   4.837407   5.406060   4.837474
                    6          7          8          9         10
     6  C    0.000000
     7  H    3.409333   0.000000
     8  H    3.875814   2.469202   0.000000
     9  H    2.137153   4.959701   4.302570   0.000000
    10  H    1.083926   4.300181   4.959684   2.469106   0.000000
    11  B    3.875687   4.743641   2.778963   2.779055   4.743625
    12  O    4.645945   5.453772   3.438366   3.442150   5.456057
    13  H    5.545711   6.318897   4.152527   4.162223   6.325169
    14  O    4.646403   5.452927   3.437187   3.443350   5.456767
    15  H    5.545666   6.318855   4.152587   4.162188   6.325112
    16  C    2.452923   2.669849   4.587685   4.587690   2.669944
    17  N    3.511319   3.487819   5.641765   5.641804   3.487980
                   11         12         13         14         15
    11  B    0.000000
    12  O    1.369133   0.000000
    13  H    1.982157   0.965623   0.000000
    14  O    1.369133   2.424801   2.569372   0.000000
    15  H    1.982155   2.569370   2.338023   0.965623   0.000000
    16  C    5.811240   6.560356   7.503602   6.560288   7.503552
    17  N    6.974748   7.706818   8.654797   7.706758   8.654753
                   16         17
    16  C    0.000000
    17  N    1.163508   0.000000
 Stoichiometry    C7H6BNO2
 Framework group  C1[X(C7H6BNO2)]
 Deg. of freedom    45
 Full point group                 C1      NOp   1
 Largest Abelian subgroup         C1      NOp   1
 Largest concise Abelian subgroup C1      NOp   1
                         Standard orientation:                         
 ---------------------------------------------------------------------
 Center     Atomic      Atomic             Coordinates (Angstroms)
 Number     Number       Type             X           Y           Z
 ---------------------------------------------------------------------
      1          6           0       -1.886798   -0.000103    0.000026
      2          6           0       -1.184416   -1.214602   -0.000778
      3          6           0        0.206272   -1.203088   -0.000879
      4          6           0        0.926447    0.001700   -0.000006
      5          6           0        0.204770    1.205509    0.000849
      6          6           0       -1.185973    1.215242    0.000816
      7          1           0       -1.731904   -2.150097   -0.001450
      8          1           0        0.737298   -2.149718   -0.001603
[...]
 Unable to Open any file for archive entry.
 1\1\GINC-NODE1329\Freq\RB3LYP\6-31G(d,p)\C7H6B1N1O2\XIAOYUY\04-May-202
 3\0\\#N Geom=AllCheck Guess=TCheck SCRF=Check GenChk RB3LYP/6-31G(d,p)
  Freq\\Title Card Required\\0,1\C,-0.8282981298,0.3367145692,0.0033433
 717\C,0.5313548126,0.3613588209,0.3540278079\C,1.2181952133,1.56957323
 67,0.3484393524\C,0.5788085118,2.7706023146,-0.0014852196\C,-0.7816006
 625,2.7243772614,-0.3488745756\C,-1.4859928708,1.5262353542,-0.3496894
 978\H,1.0300562719,-0.5626899756,0.6252307753\H,2.2688434003,1.5899676
 857,0.618737329\H,-1.2887967416,3.6441793259,-0.6210361075\H,-2.536093
 8185,1.4965465624,-0.6189829618\B,1.3619612868,4.1255466534,-0.0045478
 986\O,0.6741225035,5.2570766038,-0.357493628\H,1.1855788361,6.07381323
 89,-0.3496198078\O,2.6864882573,4.0954443521,0.3458020503\H,3.13915039
 9,4.9461134708,0.3327957001\C,-1.5455293237,-0.9038237991,0.0056925626
 \N,-2.1277633255,-1.9108700551,0.0075802974\\Version=ES64L-G16RevC.01\
 State=1-A\HF=-500.5530498\RMSD=2.713e-09\RMSF=2.587e-05\ZeroPoint=0.12
 37826\Thermal=0.1334871\ETot=-500.4195626\HTot=-500.4186185\GTot=-500.
 4648794\Dipole=1.4570839,2.5202129,-0.0060583\DipoleDeriv=0.0996641,-0
 .0833516,0.0219057,-0.0833962,0.0034396,-0.0124008,0.0218735,-0.012348
 ,0.072077,-0.0686278,0.016532,0.002065,-0.1450208,0.0483253,-0.0583655
 ,0.0267998,-0.0163292,-0.0766327,0.1285021,-0.0448474,0.0650129,0.1250
 238,-0.0717143,0.0290539,0.0388953,-0.0152907,-0.0824929,-0.2736704,-0
 .2447656,-0.0087398,-0.2447757,-0.5555189,0.0063226,-0.0086725,0.00634
 08,-0.0996739,-0.0565173,0.018438,0.0071213,-0.1514243,0.1130271,-0.07
 11367,0.0330294,-0.0266702,-0.082282,0.0748976,-0.0623272,0.0515141,0.
 0992507,-0.0950121,0.0272239,0.0269402,-0.0149315,-0.0768073,0.0517208
 ,0.0396563,-0.0229403,0.0456355,-0.0314488,0.0345008,-0.0238363,0.0329
 56,0.1052528,-0.0445013,0.0042071,-0.039028,0.007585,0.0894569,0.00402
 84,-0.0394669,0.0032022,0.0921248,0.050919,0.062597,-0.0230927,0.05918
 63,-0.0058237,0.0319807,-0.0225708,0.0327818,0.0920043,-0.0477573,-0.0
 116865,-0.0410354,-0.0176565,0.0679136,0.0028131,-0.0401371,0.0043352,
 0.1053727,1.5648011,0.3354666,0.2429254,0.3355274,1.9498937,-0.1439223
 ,0.2428529,-0.1439926,0.5233382,-0.5678836,0.3225896,-0.069109,0.13028
 79,-1.2631582,0.1519226,-0.0396392,0.2021003,-0.5342334,0.2071628,-0.1
 675941,-0.0102027,-0.0834113,0.2702097,-0.0102816,-0.0231128,-0.032198
 5,0.3438574,-1.2864928,-0.2838017,-0.1637805,-0.0915812,-0.5455157,-0.
 0160475,-0.1933489,-0.066317,-0.5332022,0.3630215,0.0063718,0.0037516,
 -0.0777579,0.1145168,0.0151478,0.0167987,0.0372023,0.3435926,0.1430718
 ,0.1724896,-0.0273003,0.1724826,0.3418504,0.01517,-0.0273295,0.0151957
 ,0.1373145,-0.3383105,-0.0799739,0.0109325,-0.0799552,-0.4304414,-0.00
 60093,0.0109241,-0.0060365,-0.3296099\Polar=102.0779677,30.4728075,137
 .110255,12.5271774,-7.4779773,40.5618692\Quadrupole=1.2532376,-0.08610
 06,-1.167137,-1.1596124,0.8804532,-0.5227547\PG=C01 [X(C7H6B1N1O2)]\NI
 mag=0\\0.62770523,0.02710390,0.65840770,0.12276925,-0.07192585,0.18394
 072,-0.29898849,-0.01996831,-0.05863019,0.63969333,0.03200768,-0.11668
 866,0.01661817,-0.00538397,0.73113651,-0.06655532,0.00307696,-0.080265
 07,0.13339932,-0.09308742,0.18004621,-0.02880468,-0.02816115,-0.005090
 85,-0.17965084,-0.12919602,-0.01088836,0.70561927,-0.07393986,0.026086
 08,-0.02214060,-0.06518147,-0.29502347,0.01860235,0.03605884,0.6576345
 9,0.00189432,-0.01021287,0.00928093,-0.02065278,0.00192312,-0.06778073
 ,0.14185503,-0.06971617,0.18720467,-0.04302387,0.02516319,-0.01292458,
 0.05683336,0.02075561,0.00881223,-0.16116611,0.04886730,-0.03257542,0.
 61600446,0.02516359,-0.01398658,0.00744652,-0.02146467,-0.05525386,0.0
 0449877,0.09846228,-0.26575639,0.05633318,0.00813700,0.62465618,-0.012
 92593,0.00744589,-0.01266802,0.01526216,0.01550413,0.01246600,-0.04015
 106,0.04340490,-0.08184562,0.12391723,-0.07257858,0.17892245,0.0566178
 1,-0.02472609,0.01664063,-0.04788463,-0.02828770,-0.00612016,-0.023025
 87,0.07112274,-0.01874472,-0.30378995,-0.03322325,-0.05720002,0.639022
 19,0.02105167,-0.05923006,0.01562606,-0.03000466,-0.01951380,-0.006035
 53,0.03215723,0.03651463,0.00390874,0.01637670,-0.12345381,0.01323450,
 -0.00246800,0.72418098,0.00965211,0.00369950,0.00918121,-0.00586142,-0
 .00558479,-0.00849972,-0.01279495,0.01406921,0.00177941,-0.06477364,0.
 00030102,-0.08167068,0.13046207,-0.08973381,0.18728786,-0.16744065,0.1
 0783887,-0.04383288,-0.02258119,0.02820889,-0.01276392,-0.00136285,-0.
 00148404,0.00190773,-0.02704696,-0.02757202,-0.00566881,-0.18227689,-0
 .13066172,-0.01138525,0.71353552,0.05586299,-0.24815187,0.04292514,0.0
 7079976,0.03450000,0.01468927,-0.00320392,-0.06597703,0.00804299,-0.06
 979181,0.02852625,-0.02088881,-0.06664414,-0.29227279,0.01772089,0.037
 06014,0.65735344,-0.03589612,0.05646117,-0.08042103,-0.01926523,0.0035
 9300,0.00429483,0.00217352,0.00848923,-0.00855547,0.00077675,-0.009882
 92,0.01257026,-0.02116034,0.00104357,-0.06779257,0.14621127,-0.0706411
 0,0.17995895,-0.01038647,0.02687972,-0.00750228,-0.11866155,0.10986767
 ,-0.03822513,0.01187955,-0.01495082,0.00451808,-0.00080480,-0.00339435
 ,-0.00163656,-0.00055087,-0.00061894,0.00005115,-0.00481104,-0.0022598
 7,-0.00249794,0.12215259,-0.00321852,0.00414601,-0.00106791,0.11192275
 ,-0.26537791,0.06416039,0.01487297,-0.01727380,0.00701939,-0.00415822,
 -0.00296679,0.00051052,-0.00087408,0.00025020,-0.00032468,-0.00099101,
 0.00138012,0.00046178,-0.11826276,0.27844920,-0.00290708,0.00677828,0.
 00085399,-0.03853721,0.06362998,-0.05618672,-0.00003839,-0.00075789,0.
 00341138,-0.00151774,0.00070934,0.00695776,0.00009220,-0.00025809,-0.0
 0032035,-0.00269102,0.00012673,0.00537030,0.04327679,-0.06948477,0.047
 34964,0.00127025,-0.00273982,-0.00122876,-0.01030028,0.00191119,-0.003
 92192,-0.32289366,-0.00606355,-0.07278308,-0.01002402,-0.00035035,-0.0
 0312869,0.00113589,0.00229297,-0.00189582,0.00059256,0.00010401,0.0002
 7858,0.00049937,0.00002874,0.00120113,0.34158962,-0.00249047,-0.004188
 34,0.00115217,-0.02785672,0.00317097,-0.00718220,-0.00680476,-0.058913
 49,0.00116911,0.02656285,0.00469107,0.00653682,0.00183804,-0.00480450,
 0.00229212,0.00016680,-0.00104760,0.00012143,0.00058327,0.00089126,-0.
 00061550,0.00652190,0.05975833,-0.00126876,0.00108621,0.00710748,0.000
 61681,0.00056421,0.00371562,-0.07265892,0.00136564,-0.05879719,-0.0072
 3706,-0.00047132,0.00038282,-0.00183207,0.00241137,0.00623552,0.000268
 72,0.00010744,-0.00048474,0.00111863,-0.00076062,-0.00372673,0.0807807
 8,-0.00324772,0.04890583,-0.00057268,-0.00355286,-0.00158722,-0.000756
 60,-0.00061032,0.00003617,-0.00512103,-0.00176791,-0.00290711,-0.01032
 277,0.02638503,-0.00728372,-0.11923710,0.11056003,-0.03756082,0.011043
 21,-0.01556009,0.00430012,0.00002620,0.00014597,0.00032312,-0.00054242
 ,0.00150317,-0.00045608,0.12446856,-0.00380189,-0.00234862,0.00052435,
 -0.00067332,0.00029967,-0.00030313,-0.00131278,0.00144595,0.00051583,-
 0.00052533,0.00499427,-0.00056382,0.11130103,-0.26231307,0.06289595,0.
 01420948,-0.01815280,0.00702404,0.00010615,-0.00005197,-0.00016234,-0.
 00018852,0.00021602,-0.00003274,-0.11859491,0.27661245,-0.00155056,0.0
 0059263,0.00710787,0.00004478,-0.00028658,-0.00048281,-0.00297913,0.00
 040043,0.00624479,-0.00318407,0.00644746,0.00038203,-0.03766851,0.0626
 9321,-0.05904266,-0.00023756,-0.00072486,0.00369169,0.00032953,-0.0001
 5272,-0.00119085,-0.00019739,0.00040855,0.00021151,0.04335078,-0.06884
 881,0.04916710,-0.00972093,-0.00283671,-0.00279146,0.00123886,0.002494
 77,-0.00164697,0.00069747,-0.00015464,0.00030546,0.00083308,-0.0032149
 7,-0.00123802,-0.00998523,0.00227627,-0.00381185,-0.32502287,-0.006955
 16,-0.07419237,-0.00044288,-0.00021067,-0.00027231,-0.00014051,0.00004
 994,0.00029480,0.00053306,0.00004797,0.00120936,0.34210370,0.02726312,
 0.00348148,0.00697990,0.00122581,-0.00466253,0.00196170,0.00010038,-0.
 00099676,0.00011948,-0.00245055,-0.00460294,0.00120225,-0.02754679,0.0
 0456799,-0.00737394,-0.00901317,-0.05927537,0.00113622,0.00139899,0.00
 024321,0.00043814,0.00001012,0.00011454,-0.00021316,0.00060217,0.00085
 769,-0.00060445,0.00844614,0.05877087,-0.00738812,-0.00086448,0.000853
 82,-0.00144858,0.00229411,0.00536440,0.00026740,0.00005006,-0.00032149
 ,-0.00135491,0.00100153,0.00695403,0.00074399,0.00040578,0.00343660,-0
 .07388210,0.00166605,-0.05593605,-0.00051779,0.00001883,0.00058686,0.0
 0030011,-0.00020308,-0.00119066,0.00112322,-0.00074734,-0.00372544,0.0
 8127745,-0.00288192,0.04708304,-0.00161493,0.00253715,-0.00067059,0.00
 036128,0.00504888,-0.00226979,0.01484879,0.00471669,0.00254692,-0.1021
 0639,-0.05676344,-0.00233138,-0.01075508,-0.02077368,-0.00023375,-0.00
 479868,-0.00096157,-0.00269974,0.00059119,0.00126328,-0.00007679,-0.00
 157465,0.00310126,-0.00011838,-0.00157090,-0.00038118,0.00041509,-0.00
 015070,-0.00071703,0.00003253,0.57553804,0.00253507,0.00131161,0.00037
 913,0.00201363,-0.00242697,0.00183268,-0.00601559,-0.01997910,0.001838
 20,-0.05676157,-0.16749257,0.00166028,-0.01003799,0.00558626,-0.003112
 75,0.00207424,0.00272079,0.00106052,-0.00028957,0.00016480,-0.00007874
 ,-0.00038437,-0.00000255,-0.00054974,0.00310685,-0.00000860,0.00035966
 ,0.00083603,0.00090547,0.00010220,-0.01731313,0.55488756,-0.00066637,0
 .00037785,-0.00075832,-0.00181170,0.00261691,0.00525470,0.00418143,0.0
 0463807,0.00269031,-0.00231311,0.00166852,-0.06070698,-0.00187920,-0.0
 0591658,0.00272936,-0.00316363,0.00027334,0.00526134,0.00016025,0.0003
 2519,0.00013521,0.00041301,0.00035925,-0.00288636,-0.00011888,-0.00054
 461,-0.00288754,-0.00020435,-0.00030305,0.00013558,0.11688719,-0.06846
 184,0.17874255,0.00030084,-0.00027291,0.00012017,0.00061856,-0.0008803
 5,0.00040081,-0.00190730,-0.00173105,-0.00048814,0.01081076,-0.0067136
 2,0.00220262,-0.00277467,0.00020644,-0.00091227,0.00105038,0.00034230,
 0.00036313,-0.00010115,-0.00015452,0.00002375,0.00025839,-0.00075668,0
 .00015346,0.00065263,-0.00105049,0.00034473,0.00008195,0.00015579,0.00
 000304,-0.13955859,0.07889666,-0.03695321,0.32741623,0.00017700,-0.001
 25520,0.00023761,-0.00025015,-0.00138981,0.00008290,-0.00504536,-0.000
 79595,-0.00104189,0.00874355,-0.03090894,0.00798406,0.00247330,-0.0030
 4546,0.00120494,0.00038951,0.00061557,-0.00007635,-0.00023307,-0.00058
 089,0.00001260,0.00007776,0.00039836,-0.00002250,-0.00064890,-0.000681
 91,-0.00007211,-0.00027943,-0.00023285,-0.00004036,0.12178305,-0.26022
 569,0.06489090,0.09345199,0.68071699,0.00005122,0.00012127,-0.00000612
 ,0.00030473,-0.00007786,-0.00031408,0.00002074,-0.00017831,0.00101582,
 -0.00016895,0.00395115,0.00565041,-0.00126132,0.00061435,0.00019519,0.
 00035609,-0.00008874,-0.00043924,0.00003599,0.00003333,-0.00009743,0.0
 0002657,-0.00024162,0.00015401,0.00028359,-0.00017870,0.00004430,0.000
 06958,0.00007315,-0.00001353,-0.04353261,0.05371507,-0.06384294,0.0635
 9014,-0.07579578,0.05662391,-0.00005688,-0.00006755,-0.00001367,0.0000
 3823,0.00001172,0.00013622,0.00000076,0.00005489,-0.00007474,0.0000500
 7,0.00125335,-0.00144048,-0.00022202,-0.00008263,0.00006515,0.00011428
 ,-0.00004760,0.00002782,-0.00000910,-0.00000703,0.00000581,0.00003508,
 0.00007093,-0.00005776,0.00055073,0.00010658,0.00016543,-0.00002867,-0
 .00003579,-0.00001125,0.00626989,0.01922116,-0.00142568,-0.16842261,-0
 .24165765,-0.00430043,0.16390194,0.00005622,0.00015003,-0.00000284,0.0
 0053104,-0.00031618,0.00011116,-0.00133359,-0.00084400,-0.00017871,0.0
 0459220,-0.00111634,0.00211171,0.00060609,0.00060382,0.00000025,-0.000
 14201,0.00005685,-0.00004015,-0.00008268,-0.00009188,-0.00001179,0.000
 07814,-0.00012265,0.00007206,-0.00019411,0.00005648,-0.00008214,0.0000
 0590,0.00000159,0.00000678,-0.02339264,-0.02816829,-0.00171159,-0.2029
 1342,-0.38197380,0.00430913,0.22125928,0.40520015,-0.00003245,-0.00003
 570,0.00003188,0.00005594,-0.00002337,-0.00047240,0.00013847,0.0001829
 3,0.00026466,-0.00195393,0.00123694,0.00414041,-0.00004096,-0.00017968
 ,-0.00040645,0.00004231,-0.00001514,0.00004941,0.00001756,0.00000809,-
 0.00002426,-0.00005888,0.00007011,0.00018908,0.00021190,-0.00000384,-0
 .00009358,-0.00001769,-0.00000415,0.00003167,0.00512105,0.00939203,0.0
 0031163,-0.01024967,-0.00578246,-0.01132391,0.00675700,-0.00338585,0.0
 0988366,-0.00082523,-0.00047320,-0.00014228,0.00040720,0.00001759,0.00
 024494,-0.00413831,0.00168839,-0.00149741,-0.02141984,-0.00982533,-0.0
 0572790,0.00185588,-0.00287663,0.00066841,-0.00039981,-0.00083583,0.00
 012964,-0.00010098,-0.00038478,0.00003783,0.00038696,-0.00080116,0.000
 23802,0.00065805,0.00030799,0.00009430,-0.00029384,-0.00034416,0.00000
 208,-0.31728985,0.01936198,-0.07424019,-0.03480643,0.01996542,-0.01808
 428,-0.00000261,-0.00252177,0.00152454,0.51241980,-0.00092230,-0.00012
 913,-0.00022064,-0.00002730,0.00125616,-0.00028080,-0.00058047,-0.0016
 7435,0.00019760,-0.02528901,0.00126965,-0.00583082,0.00043838,-0.00455
 941,0.00096057,-0.00146718,-0.00037218,-0.00038661,0.00005035,-0.00005
 022,0.00001757,-0.00120042,-0.00041389,-0.00025937,-0.00052682,-0.0000
 0043,-0.00012007,-0.00026559,-0.00038856,-0.00002575,-0.02351286,-0.08
 277512,-0.00021663,0.03834031,-0.00112034,0.01366858,-0.00045491,0.006
 56436,-0.00179886,0.20004971,0.49598781,-0.00007576,-0.00010346,-0.000
 00476,0.00025341,-0.00026895,-0.00043884,-0.00115121,0.00078939,0.0001
 9620,-0.00335953,-0.00179824,0.00570294,0.00016529,0.00010081,0.001010
 94,0.00022654,-0.00022520,-0.00031246,-0.00002860,-0.00009578,-0.00001
 334,0.00029916,-0.00015469,0.00004523,0.00022333,0.00009739,0.00015376
 ,-0.00000941,-0.00004575,-0.00009717,-0.06763166,0.01097808,-0.0635932
 6,-0.02089908,0.00887355,0.01593968,0.00120907,-0.00233856,-0.00369921
 ,0.09546102,-0.01982565,0.05637670,0.00010327,0.00014860,-0.00000501,0
 .00015315,-0.00011937,0.00004919,0.00017189,0.00083258,0.00002856,-0.0
 0336313,0.00262558,-0.00254298,-0.00008032,-0.00138100,0.00012240,-0.0
 0046268,0.00024235,-0.00002921,0.00000694,0.00002641,-0.00001149,0.000
 21801,-0.00038601,0.00015391,-0.00014837,-0.00002742,-0.00009053,-0.00
 003247,-0.00009617,0.00001341,-0.01780391,-0.03726762,0.00097972,0.006
 23032,0.00106923,0.00259820,-0.00222382,0.00345689,-0.00151780,-0.1366
 2330,-0.18458720,-0.00470333,0.15384436,0.00002480,-0.00000994,0.00001
 337,-0.00002475,0.00001775,-0.00000404,0.00014450,0.00021048,-0.000059
 36,-0.00071738,0.00229412,0.00020651,0.00000765,-0.00076360,0.00015709
 ,-0.00027697,0.00018406,-0.00017566,-0.00001529,-0.00003397,0.00000665
 ,-0.00008472,0.00038887,-0.00010341,-0.00003474,0.00006044,0.00001478,
 -0.00002052,-0.00006863,0.00000101,0.00534102,-0.00413915,0.00209471,0
 .00313685,0.00034288,0.00009276,0.00038451,-0.00000343,0.00034209,-0.2
 2332438,-0.41370982,0.00401748,0.21546562,0.41523197,0.00001459,0.0000
 4569,0.00003170,0.00003392,-0.00002876,0.00004921,0.00013397,0.0001202
 0,-0.00040685,-0.00203488,0.00107518,0.00414497,-0.00009040,-0.0002057
 6,0.00026376,0.00004902,-0.00003913,-0.00047206,-0.00000512,0.00001755
 ,0.00003160,0.00010844,-0.00018192,-0.00009320,-0.00008932,0.00001639,
 0.00018951,0.00000178,-0.00001891,-0.00002417,-0.00559209,-0.00902413,
 0.00035369,0.00228335,-0.00044835,-0.00371048,-0.00104556,0.00114277,0
 .00111805,0.00127675,0.01413233,-0.01139083,0.00495157,-0.00660247,0.0
 0991569,-0.13322371,-0.08695056,-0.00605977,-0.02485205,-0.03857077,-0
 .00104791,-0.00561288,0.00285603,-0.00394292,-0.00197461,0.00062821,-0
 .00016987,0.00232888,0.00572949,-0.00231355,0.01482161,-0.00169378,0.0
 0366489,0.00070164,-0.00019179,0.00122968,-0.00049494,-0.00141122,-0.0
 0001730,0.00061786,0.00074883,-0.00005696,-0.00001387,0.00144576,0.000
 79388,-0.00091892,-0.00080069,0.00018918,0.00014760,0.00044949,-0.0000
 5880,0.00005075,-0.00004431,0.00001587,0.00052378,0.00015569,0.0000845
 5,-0.00002511,0.00000081,-0.00001107,0.48123419,-0.08695293,-0.2333092
 5,0.00392272,-0.02454894,-0.00839293,-0.00485121,0.00115492,0.00728231
 ,0.00038759,0.00062867,-0.00125058,0.00009707,0.00743092,-0.00065147,0
 .00323197,-0.01571422,-0.04802620,0.00350156,0.00185735,0.00070360,-0.
 00021949,0.00010763,0.00023585,0.00005254,-0.00077004,-0.00087567,-0.0
 0000606,-0.00060401,0.00141762,-0.00096940,-0.00080050,-0.00184193,-0.
 00010630,-0.00006132,0.00087180,-0.00013292,0.00004454,-0.00005014,0.0
 0002187,0.00066608,0.00049618,0.00011484,-0.00008798,0.00002565,-0.000
 02462,0.63299400,1.21007538,-0.00606557,0.00392462,-0.06126838,-0.0031
 8268,-0.00850620,0.00221920,-0.00368511,0.00082908,0.00675732,-0.00017
 215,0.00009815,-0.00175015,-0.00257103,0.00279291,0.00675007,0.0058073
 2,0.00715204,0.00217634,0.00091716,-0.00075424,-0.00354988,-0.00024932
 ,-0.00034359,0.00038694,0.00017535,0.00039003,0.00038506,0.00110699,-0
 .00043530,-0.00355006,0.00018793,-0.00010703,-0.00110881,0.00001959,0.
 00000107,0.00011374,0.00000217,-0.00000142,0.00001701,0.00000653,-0.00
 001893,0.00011338,0.00000258,-0.00000112,0.00001716,0.00623362,-0.0063
 9780,0.08939660,0.00866114,-0.01992228,0.00094948,0.00433166,0.0027245
 1,0.00036061,0.00046580,-0.00092412,0.00061020,0.00051072,-0.00013303,
 0.00006340,-0.00037803,-0.00178354,0.00052202,-0.00495395,0.00354221,-
 0.00218480,0.00001136,0.00019325,-0.00013828,-0.00001566,0.00010885,0.
 00002121,-0.00027842,-0.00027215,0.00001072,0.00034384,-0.00044461,0.0
 0004566,0.00053342,0.00082489,-0.00003443,0.00000308,-0.00046574,0.000
 06955,-0.00004603,0.00003876,-0.00001328,-0.00035149,-0.00020037,-0.00
 006380,0.00003516,-0.00000699,0.00001504,-0.33331022,-0.51534418,0.001
 46664,0.32443762,-0.01992007,-0.01428526,-0.00046731,0.00889129,-0.001
 33494,0.00272815,-0.00129748,-0.00193968,-0.00024623,-0.00013320,0.000
 35726,-0.00003664,-0.00141011,-0.00109591,-0.00040354,-0.00262558,0.00
 793874,-0.00168973,-0.00063615,0.00019905,-0.00013068,-0.00012070,-0.0
 0037223,0.00000111,-0.00004252,-0.00010990,-0.00001893,0.00038467,-0.0
 0013282,0.00018601,0.00082471,0.00148348,0.00001585,0.00000402,-0.0007
 3476,0.00011515,-0.00005379,0.00005342,-0.00002501,-0.00066993,-0.0003
 8072,-0.00011526,0.00008550,-0.00002767,0.00002394,-0.51534520,-0.9267
 1021,0.00137774,0.53206454,0.93709216,0.00095055,-0.00046772,0.0170021
 0,-0.00058129,0.00112030,0.00103019,0.00066744,-0.00014851,-0.00113813
 ,0.00006375,-0.00003671,0.00036738,0.00046456,-0.00050184,-0.00113750,
 -0.00124383,-0.00008091,0.00104053,-0.00001172,0.00008564,0.00041281,0
 .00005607,0.00006076,-0.00015517,-0.00002442,-0.00007866,-0.00015475,-
 0.00008098,-0.00003022,0.00041257,-0.00003393,0.00001639,0.00016985,-0
 .00000243,-0.00000783,0.00001066,0.00000091,-0.00000081,-0.00001765,0.
 00000799,0.00000748,0.00001103,0.00000082,-0.00000038,-0.00001775,0.00
 146647,0.00137764,-0.03710555,-0.00169995,-0.00131463,0.01926941\\0.00
 000165,0.00000407,0.00000025,-0.00000109,0.00004565,-0.00000560,-0.000
 03474,-0.00004512,0.00001286,-0.00003673,-0.00005766,-0.00000570,0.000
 06467,-0.00000833,-0.00000286,0.00001658,-0.00000770,0.00000399,-0.000
 00497,-0.00001041,0.00000848,0.00002557,-0.00000103,-0.00001125,-0.000
 03129,0.00001904,0.00001077,-0.00000516,-0.00001015,-0.00000671,0.0000
 3790,0.00009341,-0.00000393,0.00002733,-0.00003339,0.00002453,0.000006
 15,0.00000457,-0.00001044,-0.00005661,-0.00000175,0.00000337,-0.000004
 07,0.00000555,-0.00001402,-0.00001220,-0.00000763,-0.00000357,0.000007
 01,0.00001088,-0.00000015\\\@
 The archive entry for this job was punched.


 WE HAVE LEARNED THAT NOTHING IS SIMPLE AND
 RATIONAL EXCEPT WHAT WE OURSELVES HAVE INVENTED;
 THAT GOD THINKS IN TERMS NEITHER OF EUCLID OR RIEMANN; THAT SCIENCE HAS "EXPLAINED" NOTHING;
 THAT THE MORE WE KNOW THE MORE FANTASTIC THE WORLD BECOMES
 AND THE PROFOUNDER THE SURROUNDING DARKNESS.
   --  ALDOUS HUXLEY
 Job cpu time:       0 days  0 hours  6 minutes 24.3 seconds.
 Elapsed time:       0 days  0 hours  6 minutes 25.9 seconds.
 File lengths (MBytes):  RWF=     79 Int=      0 D2E=      0 Chk=      4 Scr=      1
 Normal termination of Gaussian 16 at Thu May  4 16:59:00 2023.
