 Entering Gaussian System, Link 0=g16
 Input=target.gjf
 Output=target.log
 Initial command:
 /public/home/xiaoyuy/gaussian/g16/l1.exe "/public/home/xiaoyuy/yxy/Gau-66991.inp" -scrdir="/public/home/xiaoyuy/yxy/"
 Entering Link 1 = /public/home/xiaoyuy/gaussian/g16/l1.exe PID=     66992.
  
 Copyright (c) 1988-2019, Gaussian, Inc.  All Rights Reserved.
  
 This is part of the Gaussian(R) 16 program.  It is based on
 the Gaussian(R) 09 system (copyright 2009, Gaussian, Inc.),
 the Gaussian(R) 03 system (copyright 2003, Gaussian, Inc.),
 the Gaussian(R) 98 system (copyright 1998, Gaussian, Inc.),
 the Gaussian(R) 94 system (copyright 1995, Gaussian, Inc.),
 the Gaussian 92(TM) system (copyright 1992, Gaussian, Inc.),
 the Gaussian 90(TM) system (copyright 1990, Gaussian, Inc.),
 the Gaussian 88(TM) system (copyright 1988, Gaussian, Inc.),
 the Gaussian 86(TM) system (copyright 1986, Carnegie Mellon
 University), and the Gaussian 82(TM) system (copyright 1983,
 Carnegie Mellon University). Gaussian is a federally registered
 trademark of Gaussian, Inc.
  
 This software contains proprietary and confidential information,
 including trade secrets, belonging to Gaussian, Inc.
  
 This software is provided under written license and may be
 used, copied, transmitted, or stored only in accord with that
 written license.
  
 The following legend is applicable only to US Government
 contracts under FAR:
  
                    RESTRICTED RIGHTS LEGEND
  
 Use, reproduction and disclosure by the US Government is
 subject to restrictions as set forth in subparagraphs (a)
 and (c) of the Commercial Computer Software - Restricted
 Rights clause in FAR 52.227-19.
  
 Gaussian, Inc.
 340 Quinnipiac St., Bldg. 40, Wallingford CT 06492
  
  
 ---------------------------------------------------------------
 Warning -- This program may not be used in any manner that
 competes with the business of Gaussian, Inc. or will provide
 assistance to any competitor of Gaussian, Inc.  The licensee
 of this program is prohibited from giving any competitor of
 Gaussian, Inc. access to this program.  By using this program,
 the user acknowledges that Gaussian, Inc. is engaged in the
 business of creating and licensing software in the field of
 computational chemistry and represents and warrants to the
 licensee that it is not a competitor of Gaussian, Inc. and that
 it will not use this program in any manner prohibited above.
 ---------------------------------------------------------------
  

 Cite this work as:
 Gaussian 16, Revision C.01,
 M. J. Frisch, G. W. Trucks, H. B. Schlegel, G. E. Scuseria, 
 M. A. Robb, J. R. Cheeseman, G. Scalmani, V. Barone, 
 G. A. Petersson, H. Nakatsuji, X. Li, M. Caricato, A. V. Marenich, 
 J. Bloino, B. G. Janesko, R. Gomperts, B. Mennucci, H. P. Hratchian, 
 J. V. Ortiz, A. F. Izmaylov, J. L. Sonnenberg, D. Williams-Young, 
 F. Ding, F. Lipparini, F. Egidi, J. Goings, B. Peng, A. Petrone, 
 T. Henderson, D. Ranasinghe, V. G. Zakrzewski, J. Gao, N. Rega, 
 G. Zheng, W. Liang, M. Hada, M. Ehara, K. Toyota, R. Fukuda, 
 J. Hasegawa, M. Ishida, T. Nakajima, Y. Honda, O. Kitao, H. Nakai, 
 T. Vreven, K. Throssell, J. A. Montgomery, Jr., J. E. Peralta, 
 F. Ogliaro, M. J. Bearpark, J. J. Heyd, E. N. Brothers, K. N. Kudin, 
 V. N. Staroverov, T. A. Keith, R. Kobayashi, J. Normand, 
 K. Raghavachari, A. P. Rendell, J. C. Burant, S. S. Iyengar, 
 J. Tomasi, M. Cossi, J. M. Millam, M. Klene, C. Adamo, R. Cammi, 
 J. W. Ochterski, R. L. Martin, K. Morokuma, O. Farkas, 
 J. B. Foresman, and D. J. Fox, Gaussian, Inc., Wallingford CT, 2019.
 
 ******************************************
 Gaussian 16:  ES64L-G16RevC.01  3-Jul-2019
                 4-May-2023 
 ******************************************
 %chk=target.chk
 ------------------------------------------------------
 # opt freq b3lyp/6-31g(d,p) geom=connectivity em=gd3bj
 ------------------------------------------------------
 1/18=20,19=15,26=3,38=1,57=2/1,3;
 2/9=110,12=2,17=6,18=5,40=1/2;
 3/5=1,6=6,7=101,11=2,25=1,30=1,71=1,74=-5,124=41/1,2,3;
 4//1;
 5/5=2,38=5/2;
 6/7=2,8=2,9=2,10=2,28=1/1;
 7//1,2,3,16;
 1/18=20,19=15,26=3/3(2);
 2/9=110/2;
 99//99;
 2/9=110/2;
 3/5=1,6=6,7=101,11=2,25=1,30=1,71=1,74=-5,124=41/1,2,3;
 4/5=5,16=3,69=1/1;
 5/5=2,38=5/2;
 7//1,2,3,16;
 1/18=20,19=15,26=3/3(-5);
 2/9=110/2;
 6/7=2,8=2,9=2,10=2,19=2,28=1/1;
 99/9=1/99;
 -------------------
 Title Card Required
 -------------------
 Symbolic Z-matrix:
 Charge =  0 Multiplicity = 1
 C                    -4.11365   0.31487  -0.06211 
 C                    -2.71849   0.31487  -0.06211 
 C                    -2.02095   1.52262  -0.06211 
 C                    -2.7186    2.73113  -0.06331 
 C                    -4.11343   2.73105  -0.06379 
 C                    -4.81103   1.52285  -0.06279 
 H                    -4.66341  -0.63745  -0.06166 
 H                    -2.16898  -0.63764  -0.06079 
 H                    -2.1684    3.68327  -0.06337 
 H                    -4.66355   3.68333  -0.06474 
 H                    -5.91063   1.52303  -0.06297 
 C                    -0.48095   1.52273  -0.06122 
 C                     0.28564   1.52475   1.27442 
 C                     0.63249   2.73394   1.87777 
 C                     0.63311   0.31776   1.88104 
 C                     1.32725   2.73604   3.08711 
 H                     0.35908   3.68533   1.39888 
 C                     1.32722   0.31969   3.09125 
 H                     0.35966  -0.63536   1.40574 
 C                     1.67444   1.52855   3.69427 
 H                     1.60123   3.6891    3.56242 
 H                     1.60069  -0.63212   3.56952 
 O                     0.15319   1.52118  -1.14816 
 C                     2.4415    1.53122   5.02964 
 N                     3.01261   1.53321   6.02388 
 

 GradGradGradGradGradGradGradGradGradGradGradGradGradGradGradGradGradGrad
 Berny optimization.
 Initialization pass.
                           ----------------------------
                           !    Initial Parameters    !
                           ! (Angstroms and Degrees)  !
 --------------------------                            --------------------------
 ! Name  Definition              Value          Derivative Info.                !
 --------------------------------------------------------------------------------
 ! R1    R(1,2)                  1.3952         estimate D2E/DX2                !
 ! R2    R(1,6)                  1.3948         estimate D2E/DX2                !
 ! R3    R(1,7)                  1.0996         estimate D2E/DX2                !
 ! R4    R(2,3)                  1.3947         estimate D2E/DX2                !
 ! R5    R(2,8)                  1.0997         estimate D2E/DX2                !
 ! R6    R(3,4)                  1.3954         estimate D2E/DX2                !
 ! R7    R(3,12)                 1.54           estimate D2E/DX2                !
 ! R8    R(4,5)                  1.3948         estimate D2E/DX2                !
 ! R9    R(4,9)                  1.0997         estimate D2E/DX2                !
 ! R10   R(5,6)                  1.3951         estimate D2E/DX2                !
 ! R11   R(5,10)                 1.0998         estimate D2E/DX2                !
 ! R12   R(6,11)                 1.0996         estimate D2E/DX2                !
 ! R13   R(12,13)                1.54           estimate D2E/DX2                !
 ! R14   R(12,23)                1.2584         estimate D2E/DX2                !
 ! R15   R(13,14)                1.3952         estimate D2E/DX2                !
 ! R16   R(13,15)                1.3948         estimate D2E/DX2                !
 ! R17   R(14,16)                1.3947         estimate D2E/DX2                !
 ! R18   R(14,17)                1.0997         estimate D2E/DX2                !
 ! R19   R(15,18)                1.3951         estimate D2E/DX2                !
 ! R20   R(15,19)                1.0996         estimate D2E/DX2                !
 ! R21   R(16,20)                1.3954         estimate D2E/DX2                !
 ! R22   R(16,21)                1.0997         estimate D2E/DX2                !
 ! R23   R(18,20)                1.3948         estimate D2E/DX2                !
 ! R24   R(18,22)                1.0998         estimate D2E/DX2                !
 ! R25   R(20,24)                1.54           estimate D2E/DX2                !
 ! R26   R(24,25)                1.1466         estimate D2E/DX2                !
 ! A1    A(2,1,6)              119.9985         estimate D2E/DX2                !
 ! A2    A(2,1,7)              119.9972         estimate D2E/DX2                !
 ! A3    A(6,1,7)              120.0043         estimate D2E/DX2                !
 ! A4    A(1,2,3)              120.0086         estimate D2E/DX2                !
 ! A5    A(1,2,8)              119.9808         estimate D2E/DX2                !
 ! A6    A(3,2,8)              120.0106         estimate D2E/DX2                !
 ! A7    A(2,3,4)              119.9942         estimate D2E/DX2                !
 ! A8    A(2,3,12)             120.0128         estimate D2E/DX2                !
 ! A9    A(4,3,12)             119.993          estimate D2E/DX2                !
 ! A10   A(3,4,5)              119.994          estimate D2E/DX2                !
 ! A11   A(3,4,9)              119.9811         estimate D2E/DX2                !
 ! A12   A(5,4,9)              120.0249         estimate D2E/DX2                !
 ! A13   A(4,5,6)              120.0047         estimate D2E/DX2                !
 ! A14   A(4,5,10)             120.0113         estimate D2E/DX2                !
 ! A15   A(6,5,10)             119.984          estimate D2E/DX2                !
 ! A16   A(1,6,5)              120.0            estimate D2E/DX2                !
 ! A17   A(1,6,11)             120.008          estimate D2E/DX2                !
 ! A18   A(5,6,11)             119.992          estimate D2E/DX2                !
 ! A19   A(3,12,13)            119.8865         estimate D2E/DX2                !
 ! A20   A(3,12,23)            120.2269         estimate D2E/DX2                !
 ! A21   A(13,12,23)           119.8865         estimate D2E/DX2                !
 ! A22   A(12,13,14)           119.9972         estimate D2E/DX2                !
 ! A23   A(12,13,15)           120.0043         estimate D2E/DX2                !
 ! A24   A(14,13,15)           119.9985         estimate D2E/DX2                !
 ! A25   A(13,14,16)           120.0086         estimate D2E/DX2                !
 ! A26   A(13,14,17)           119.9808         estimate D2E/DX2                !
 ! A27   A(16,14,17)           120.0106         estimate D2E/DX2                !
 ! A28   A(13,15,18)           120.0            estimate D2E/DX2                !
 ! A29   A(13,15,19)           120.008          estimate D2E/DX2                !
 ! A30   A(18,15,19)           119.992          estimate D2E/DX2                !
 ! A31   A(14,16,20)           119.9942         estimate D2E/DX2                !
 ! A32   A(14,16,21)           120.0128         estimate D2E/DX2                !
 ! A33   A(20,16,21)           119.993          estimate D2E/DX2                !
 ! A34   A(15,18,20)           120.0047         estimate D2E/DX2                !
 ! A35   A(15,18,22)           119.984          estimate D2E/DX2                !
 ! A36   A(20,18,22)           120.0113         estimate D2E/DX2                !
 ! A37   A(16,20,18)           119.994          estimate D2E/DX2                !
 ! A38   A(16,20,24)           119.9811         estimate D2E/DX2                !
 ! A39   A(18,20,24)           120.0249         estimate D2E/DX2                !
 ! A40   L(20,24,25,21,-1)     180.0            estimate D2E/DX2                !
 ! A41   L(20,24,25,21,-2)     180.0            estimate D2E/DX2                !
 ! D1    D(6,1,2,3)              0.0323         estimate D2E/DX2                !
 ! D2    D(6,1,2,8)            179.9532         estimate D2E/DX2                !
 ! D3    D(7,1,2,3)           -179.9729         estimate D2E/DX2                !
 ! D4    D(7,1,2,8)             -0.052          estimate D2E/DX2                !
 ! D5    D(2,1,6,5)              0.0149         estimate D2E/DX2                !
 ! D6    D(2,1,6,11)           179.9892         estimate D2E/DX2                !
 ! D7    D(7,1,6,5)           -179.9798         estimate D2E/DX2                !
 ! D8    D(7,1,6,11)            -0.0056         estimate D2E/DX2                !
 ! D9    D(1,2,3,4)             -0.0568         estimate D2E/DX2                !
 ! D10   D(1,2,3,12)           179.9619         estimate D2E/DX2                !
 ! D11   D(8,2,3,4)           -179.9777         estimate D2E/DX2                !
 ! D12   D(8,2,3,12)             0.041          estimate D2E/DX2                !
 ! D13   D(2,3,4,5)              0.0341         estimate D2E/DX2                !
 ! D14   D(2,3,4,9)           -179.9964         estimate D2E/DX2                !
 ! D15   D(12,3,4,5)          -179.9846         estimate D2E/DX2                !
 ! D16   D(12,3,4,9)            -0.0151         estimate D2E/DX2                !
 ! D17   D(2,3,12,13)          -90.065          estimate D2E/DX2                !
 ! D18   D(2,3,12,23)           89.935          estimate D2E/DX2                !
 ! D19   D(4,3,12,13)           89.9537         estimate D2E/DX2                !
 ! D20   D(4,3,12,23)          -90.0463         estimate D2E/DX2                !
 ! D21   D(3,4,5,6)              0.0131         estimate D2E/DX2                !
 ! D22   D(3,4,5,10)          -179.9995         estimate D2E/DX2                !
 ! D23   D(9,4,5,6)           -179.9563         estimate D2E/DX2                !
 ! D24   D(9,4,5,10)             0.0311         estimate D2E/DX2                !
 ! D25   D(4,5,6,1)             -0.0376         estimate D2E/DX2                !
 ! D26   D(4,5,6,11)           179.9881         estimate D2E/DX2                !
 ! D27   D(10,5,6,1)           179.975          estimate D2E/DX2                !
 ! D28   D(10,5,6,11)            0.0007         estimate D2E/DX2                !
 ! D29   D(3,12,13,14)         -89.985          estimate D2E/DX2                !
 ! D30   D(3,12,13,15)          90.0097         estimate D2E/DX2                !
 ! D31   D(23,12,13,14)         90.015          estimate D2E/DX2                !
 ! D32   D(23,12,13,15)        -89.9903         estimate D2E/DX2                !
 ! D33   D(12,13,14,16)       -179.9729         estimate D2E/DX2                !
 ! D34   D(12,13,14,17)         -0.052          estimate D2E/DX2                !
 ! D35   D(15,13,14,16)          0.0323         estimate D2E/DX2                !
 ! D36   D(15,13,14,17)        179.9532         estimate D2E/DX2                !
 ! D37   D(12,13,15,18)       -179.9798         estimate D2E/DX2                !
 ! D38   D(12,13,15,19)         -0.0056         estimate D2E/DX2                !
 ! D39   D(14,13,15,18)          0.0149         estimate D2E/DX2                !
 ! D40   D(14,13,15,19)        179.9892         estimate D2E/DX2                !
 ! D41   D(13,14,16,20)         -0.0568         estimate D2E/DX2                !
 ! D42   D(13,14,16,21)        179.9619         estimate D2E/DX2                !
 ! D43   D(17,14,16,20)       -179.9777         estimate D2E/DX2                !
 ! D44   D(17,14,16,21)          0.041          estimate D2E/DX2                !
 ! D45   D(13,15,18,20)         -0.0376         estimate D2E/DX2                !
 ! D46   D(13,15,18,22)        179.975          estimate D2E/DX2                !
 ! D47   D(19,15,18,20)        179.9881         estimate D2E/DX2                !
 ! D48   D(19,15,18,22)          0.0007         estimate D2E/DX2                !
 ! D49   D(14,16,20,18)          0.0341         estimate D2E/DX2                !
 ! D50   D(14,16,20,24)       -179.9964         estimate D2E/DX2                !
 ! D51   D(21,16,20,18)       -179.9846         estimate D2E/DX2                !
 ! D52   D(21,16,20,24)         -0.0151         estimate D2E/DX2                !
 ! D53   D(15,18,20,16)          0.0131         estimate D2E/DX2                !
 ! D54   D(15,18,20,24)       -179.9563         estimate D2E/DX2                !
 ! D55   D(22,18,20,16)       -179.9995         estimate D2E/DX2                !
 ! D56   D(22,18,20,24)          0.031          estimate D2E/DX2                !
 --------------------------------------------------------------------------------
 Trust Radius=3.00D-01 FncErr=1.00D-07 GrdErr=1.00D-06 EigMax=2.50D+02 EigMin=1.00D-04
 Number of steps in this run=    133 maximum allowed number of steps=    150.
 GradGradGradGradGradGradGradGradGradGradGradGradGradGradGradGradGradGrad

                          Input orientation:                          
 ---------------------------------------------------------------------
 Center     Atomic      Atomic             Coordinates (Angstroms)
 Number     Number       Type             X           Y           Z
 ---------------------------------------------------------------------
      1          6           0       -4.113647    0.314869   -0.062109
      2          6           0       -2.718487    0.314869   -0.062109
      3          6           0       -2.020949    1.522620   -0.062109
      4          6           0       -2.718603    2.731129   -0.063308
      5          6           0       -4.113428    2.731051   -0.063787
      6          6           0       -4.811029    1.522845   -0.062791
      7          1           0       -4.663406   -0.637448   -0.061659
      8          1           0       -2.168979   -0.637644   -0.060794
      9          1           0       -2.168403    3.683272   -0.063367
     10          1           0       -4.663550    3.683332   -0.064740
     11          1           0       -5.910633    1.523028   -0.062971
     12          6           0       -0.480949    1.522732   -0.061221
     13          6           0        0.285638    1.524748    1.274422
     14          6           0        0.632492    2.733938    1.877765
     15          6           0        0.633110    0.317758    1.881040
     16          6           0        1.327252    2.736042    3.087115
     17          1           0        0.359081    3.685335    1.398878
     18          6           0        1.327218    0.319689    3.091255
     19          1           0        0.359657   -0.635364    1.405738
     20          6           0        1.674438    1.528550    3.694273
     21          1           0        1.601231    3.689098    3.562421
     22          1           0        1.600690   -0.632124    3.569521
     23          8           0        0.153190    1.521182   -1.148160
     24          6           0        2.441499    1.531222    5.029642
     25          7           0        3.012612    1.533212    6.023885
 ---------------------------------------------------------------------
                    Distance matrix (angstroms):
                    1          2          3          4          5
     1  C    0.000000
     2  C    1.395160   0.000000
     3  C    2.416205   1.394712   0.000000
     4  C    2.790065   2.416260   1.395427   0.000000
     5  C    2.416183   2.789946   2.416356   1.394825   0.000000
     6  C    1.394829   2.416183   2.790080   2.416236   1.395138
     7  H    1.099610   2.165553   3.412986   3.889675   3.413102
     8  H    2.165414   1.099655   2.165330   3.413316   3.889601
     9  H    3.889745   3.413024   2.165678   1.099680   2.165606
    10  H    3.413055   3.889707   3.413506   2.165528   1.099761
    11  H    2.165365   3.413128   3.889684   3.412999   2.165471
    12  C    3.828241   2.542737   1.540000   2.543093   3.828178
    13  C    4.754348   3.503553   2.665832   3.502904   4.753709
    14  C    5.669289   4.565530   3.503020   3.872675   5.127708
    15  C    5.129086   3.874149   3.503076   4.564956   5.668858
    16  C    6.736695   5.669893   4.753993   5.127780   6.287225
    17  H    5.787902   4.792279   3.532189   3.538450   4.801393
    18  C    6.288619   5.129469   4.754047   5.668771   6.735694
    19  H    4.802912   3.540125   3.532528   4.792395   5.787982
    20  C    7.006093   5.906032   5.269376   5.904610   7.004885
    21  H    7.561908   6.571346   5.563364   5.720539   6.835536
    22  H    6.836606   5.721960   5.563086   6.570024   7.560623
    23  O    4.565150   3.298670   2.430306   3.299707   4.565487
    24  C    8.389003   7.350571   6.770483   7.348780   8.387471
    25  N    9.450250   8.448027   7.897858   8.446048   9.448545
                    6          7          8          9         10
     6  C    0.000000
     7  H    2.165331   0.000000
     8  H    3.412938   2.494427   0.000000
     9  H    3.413344   4.989355   4.320917   0.000000
    10  H    2.165516   4.320781   4.989362   2.495147   0.000000
    11  H    1.099604   2.494641   4.320704   4.320988   2.494420
    12  C    4.330080   4.707369   2.741654   2.741430   4.707691
    13  C    5.269170   5.563563   3.533254   3.531461   5.563029
    14  C    5.904610   6.570703   4.793101   3.537547   5.720379
    15  C    5.905028   5.721850   3.540509   4.791229   6.570217
    16  C    7.005158   7.561956   5.789189   4.800248   6.835295
    17  H    5.791621   6.785646   5.216308   2.919989   5.231539
    18  C    7.005259   6.836998   4.803674   5.786596   7.560667
    19  H    5.792274   5.233012   2.923135   5.215359   6.785724
    20  C    7.495121   7.678986   5.793511   5.790519   7.677457
    21  H    7.678013   8.432000   6.786962   5.230344   7.239047
    22  H    7.677742   7.240469   5.233509   6.784289   8.430404
    23  O    5.081485   5.388855   3.351919   3.352790   5.389775
    24  C    8.861834   9.005784   7.202293   7.198698   9.003667
    25  N    9.912470  10.033287   8.281594   8.277699  10.030843
                   11         12         13         14         15
    11  H    0.000000
    12  C    5.429684   0.000000
    13  C    6.338958   1.540000   0.000000
    14  C    6.931468   2.542919   1.395160   0.000000
    15  C    6.931985   2.542728   1.394829   2.416183   0.000000
    16  C    7.986327   3.828019   2.416205   1.394712   2.790080
    17  H    6.791309   2.741238   2.165414   1.099655   3.412938
    18  C    7.986466   3.828169   2.416183   2.789946   1.395138
    19  H    6.792076   2.741526   2.165365   3.413128   1.099604
    20  C    8.464644   4.330065   2.790065   2.416260   2.416236
    21  H    8.617622   4.707376   3.413229   2.165375   3.889760
    22  H    8.617404   4.707326   3.413055   3.889707   2.165516
    23  O    6.160161   1.258400   2.426202   3.294955   3.294632
    24  C    9.782274   5.870065   4.330065   3.827971   3.828376
    25  N   10.801583   7.016665   5.476665   4.929200   4.929759
                   16         17         18         19         20
    16  C    0.000000
    17  H    2.165330   0.000000
    18  C    2.416356   3.889601   0.000000
    19  H    3.889684   4.320704   2.165471   0.000000
    20  C    1.395427   3.413316   1.394825   3.412999   0.000000
    21  H    1.099680   2.494768   3.413209   4.989364   2.165806
    22  H    3.413506   4.989362   1.099761   2.494420   2.165528
    23  O    4.559809   3.348634   4.560105   3.348987   5.075767
    24  C    2.542941   4.707347   2.542987   4.707530   1.540000
    25  N    3.593307   5.750090   3.593537   5.750493   2.686600
                   21         22         23         24         25
    21  H    0.000000
    22  H    4.321228   0.000000
    23  O    5.383888   5.384097   0.000000
    24  C    2.741390   2.742076   6.587996   0.000000
    25  N    3.563516   3.564562   7.721053   1.146600   0.000000
 Stoichiometry    C14H9NO
 Framework group  C1[X(C14H9NO)]
 Deg. of freedom    69
 Full point group                 C1      NOp   1
 Largest Abelian subgroup         C1      NOp   1
 Largest concise Abelian subgroup C1      NOp   1
                         Standard orientation:                         
 ---------------------------------------------------------------------
 Center     Atomic      Atomic             Coordinates (Angstroms)
 Number     Number       Type             X           Y           Z
 ---------------------------------------------------------------------
      1          6           0        3.673330   -0.962854    1.213348
      2          6           0        2.584989   -0.089949    1.208401
      3          6           0        2.039582    0.338049   -0.001793
      4          6           0        2.583289   -0.105947   -1.207805
      5          6           0        3.671668   -0.978267   -1.202785
      6          6           0        4.216502   -1.407079    0.007870
      7          1           0        4.102907   -1.300525    2.167593
      8          1           0        2.156507    0.259480    2.158950
      9          1           0        2.153123    0.231697   -2.161876
     10          1           0        4.100403   -1.328362   -2.153098
     11          1           0        5.074396   -2.094925    0.011585
     12          6           0        0.837699    1.300882   -0.007359
     13          6           0       -0.595983    0.738614   -0.003944
     14          6           0       -1.245327    0.476548   -1.210652
     15          6           0       -1.245316    0.491239    1.205486
     16          6           0       -2.543960   -0.032144   -1.207840
     17          1           0       -0.733417    0.672405   -2.163977
     18          6           0       -2.543982   -0.018534    1.208477
     19          1           0       -0.733614    0.697564    2.156653
     20          6           0       -3.193408   -0.280116    0.002095
     21          1           0       -3.056075   -0.238142   -2.158944
     22          1           0       -3.055552   -0.213867    2.162215
     23          8           0        1.023091    2.545529   -0.014689
     24          6           0       -4.627289   -0.841878    0.004851
     25          7           0       -5.694879   -1.260134    0.006902
 ---------------------------------------------------------------------
 Rotational constants (GHZ):           1.2561485           0.2442281           0.2388240
 Standard basis: 6-31G(d,p) (6D, 7F)
 There are   285 symmetry adapted cartesian basis functions of A   symmetry.
 There are   285 symmetry adapted basis functions of A   symmetry.
   285 basis functions,   511 primitive gaussians,   285 cartesian basis functions
    54 alpha electrons       54 beta electrons
       nuclear repulsion energy       901.8962685301 Hartrees.
 NAtoms=   25 NActive=   25 NUniq=   25 SFac= 1.00D+00 NAtFMM=   60 NAOKFM=F Big=F
 Integral buffers will be    131072 words long.
 Raffenetti 2 integral format.
 Two-electron integral symmetry is turned on.
 Nuclear repulsion after empirical dispersion term =      901.8422648576 Hartrees.
 One-electron integrals computed using PRISM.
 NBasis=   285 RedAO= T EigKep=  4.22D-04  NBF=   285
 NBsUse=   285 1.00D-06 EigRej= -1.00D+00 NBFU=   285
 ExpMin= 1.61D-01 ExpMax= 5.48D+03 ExpMxC= 8.25D+02 IAcc=3 IRadAn=         5 AccDes= 0.00D+00
 Harris functional with IExCor=  402 and IRadAn=       5 diagonalized for initial guess.
 HarFok:  IExCor=  402 AccDes= 0.00D+00 IRadAn=         5 IDoV= 1 UseB2=F ITyADJ=14
 ICtDFT=  3500011 ScaDFX=  1.000000  1.000000  1.000000  1.000000
 FoFCou: FMM=F IPFlag=           0 FMFlag=      100000 FMFlg1=           0
         NFxFlg=           0 DoJE=T BraDBF=F KetDBF=T FulRan=T
         wScrn=  0.000000 ICntrl=       500 IOpCl=  0 I1Cent=   200000004 NGrid=           0
         NMat0=    1 NMatS0=      1 NMatT0=    0 NMatD0=    1 NMtDS0=    0 NMtDT0=    0
 Petite list used in FoFCou.
 Requested convergence on RMS density matrix=1.00D-08 within 128 cycles.
 Requested convergence on MAX density matrix=1.00D-06.
 Requested convergence on             energy=1.00D-06.
 No special actions if energy rises.
 Integral accuracy reduced to 1.0D-05 until final iterations.
 Initial convergence to 1.0D-05 achieved.  Increase integral accuracy.
 SCF Done:  E(RB3LYP) =  -668.910800611     A.U. after   15 cycles
            NFock= 15  Conv=0.42D-08     -V/T= 2.0104

 **********************************************************************

            Population analysis using the SCF Density.

 **********************************************************************

 Orbital symmetries:
       Occupied  (A) (A) (A) (A) (A) (A) (A) (A) (A) (A) (A) (A)
                 (A) (A) (A) (A) (A) (A) (A) (A) (A) (A) (A) (A)
                 (A) (A) (A) (A) (A) (A) (A) (A) (A) (A) (A) (A)
                 (A) (A) (A) (A) (A) (A) (A) (A) (A) (A) (A) (A)
                 (A) (A) (A) (A) (A) (A)
       Virtual   (A) (A) (A) (A) (A) (A) (A) (A) (A) (A) (A) (A)
                 (A) (A) (A) (A) (A) (A) (A) (A) (A) (A) (A) (A)
                 (A) (A) (A) (A) (A) (A) (A) (A) (A) (A) (A) (A)
                 (A) (A) (A) (A) (A) (A) (A) (A) (A) (A) (A) (A)
                 (A) (A) (A) (A) (A) (A) (A) (A) (A) (A) (A) (A)
                 (A) (A) (A) (A) (A) (A) (A) (A) (A) (A) (A) (A)
                 (A) (A) (A) (A) (A) (A) (A) (A) (A) (A) (A) (A)
                 (A) (A) (A) (A) (A) (A) (A) (A) (A) (A) (A) (A)
                 (A) (A) (A) (A) (A) (A) (A) (A) (A) (A) (A) (A)
                 (A) (A) (A) (A) (A) (A) (A) (A) (A) (A) (A) (A)
                 (A) (A) (A) (A) (A) (A) (A) (A) (A) (A) (A) (A)
                 (A) (A) (A) (A) (A) (A) (A) (A) (A) (A) (A) (A)
                 (A) (A) (A) (A) (A) (A) (A) (A) (A) (A) (A) (A)
                 (A) (A) (A) (A) (A) (A) (A) (A) (A) (A) (A) (A)
                 (A) (A) (A) (A) (A) (A) (A) (A) (A) (A) (A) (A)
                 (A) (A) (A) (A) (A) (A) (A) (A) (A) (A) (A) (A)
                 (A) (A) (A) (A) (A) (A) (A) (A) (A) (A) (A) (A)
                 (A) (A) (A) (A) (A) (A) (A) (A) (A) (A) (A) (A)
                 (A) (A) (A) (A) (A) (A) (A) (A) (A) (A) (A) (A)
                 (A) (A) (A)
 The electronic state is 1-A.
 Alpha  occ. eigenvalues --  -19.16708 -14.33938 -10.30900 -10.25963 -10.23694
 Alpha  occ. eigenvalues --  -10.23554 -10.23109 -10.23109 -10.22779 -10.22777
 Alpha  occ. eigenvalues --  -10.22154 -10.21332 -10.21327 -10.20990 -10.20980
 Alpha  occ. eigenvalues --  -10.20828  -1.03991  -0.91542  -0.89156  -0.87308
 Alpha  occ. eigenvalues --   -0.80116  -0.78026  -0.77072  -0.76238  -0.67816
 Alpha  occ. eigenvalues --   -0.64261  -0.63167  -0.62132  -0.57853  -0.56399
 Alpha  occ. eigenvalues --   -0.53137  -0.49575  -0.49197  -0.47201  -0.46859
 Alpha  occ. eigenvalues --   -0.45888  -0.45263  -0.44469  -0.43664  -0.41420
 Alpha  occ. eigenvalues --   -0.40828  -0.39071  -0.37916  -0.37494  -0.37147
 Alpha  occ. eigenvalues --   -0.36170  -0.35738  -0.35279  -0.34285  -0.28514
 Alpha  occ. eigenvalues --   -0.28320  -0.27310  -0.26873  -0.25716
 Alpha virt. eigenvalues --   -0.05644  -0.05619  -0.03497  -0.01802  -0.01709
 Alpha virt. eigenvalues --    0.03652   0.04838   0.06802   0.07835   0.09723
 Alpha virt. eigenvalues --    0.11389   0.13156   0.13616   0.15175   0.15384
 Alpha virt. eigenvalues --    0.15963   0.16352   0.17996   0.19196   0.20169
 Alpha virt. eigenvalues --    0.23821   0.25490   0.28451   0.28773   0.29539
 Alpha virt. eigenvalues --    0.30841   0.31031   0.32769   0.34282   0.35169
 Alpha virt. eigenvalues --    0.38264   0.41837   0.46962   0.47086   0.49495
 Alpha virt. eigenvalues --    0.50567   0.51412   0.51852   0.52248   0.52884
 Alpha virt. eigenvalues --    0.54424   0.54616   0.55321   0.55812   0.55878
 Alpha virt. eigenvalues --    0.57234   0.57823   0.57891   0.58757   0.58942
 Alpha virt. eigenvalues --    0.59457   0.60010   0.60148   0.60747   0.62361
 Alpha virt. eigenvalues --    0.63497   0.64592   0.66775   0.67637   0.69345
 Alpha virt. eigenvalues --    0.69851   0.71822   0.72560   0.73717   0.74596
 Alpha virt. eigenvalues --    0.76362   0.77415   0.79437   0.79823   0.79959
 Alpha virt. eigenvalues --    0.80113   0.80870   0.81376   0.83057   0.83986
 Alpha virt. eigenvalues --    0.85747   0.86554   0.87163   0.87194   0.89518
 Alpha virt. eigenvalues --    0.93235   0.93365   0.94001   0.96175   0.97420
 Alpha virt. eigenvalues --    0.99133   1.00104   1.06575   1.07476   1.09193
 Alpha virt. eigenvalues --    1.09836   1.10558   1.11669   1.13253   1.14121
 Alpha virt. eigenvalues --    1.15775   1.16035   1.17196   1.22469   1.24545
 Alpha virt. eigenvalues --    1.24679   1.30682   1.31706   1.34546   1.36879
 Alpha virt. eigenvalues --    1.37433   1.38358   1.38368   1.38612   1.40357
 Alpha virt. eigenvalues --    1.40556   1.41698   1.42648   1.47381   1.51913
 Alpha virt. eigenvalues --    1.53565   1.56101   1.59232   1.60199   1.60799
 Alpha virt. eigenvalues --    1.67779   1.74356   1.74588   1.74928   1.75544
 Alpha virt. eigenvalues --    1.76299   1.76899   1.77903   1.78475   1.83680
 Alpha virt. eigenvalues --    1.83787   1.84300   1.86302   1.87536   1.89353
 Alpha virt. eigenvalues --    1.90506   1.91452   1.93126   1.93844   1.94388
 Alpha virt. eigenvalues --    1.95843   1.96126   1.96153   1.96747   1.97889
 Alpha virt. eigenvalues --    1.98043   2.00928   2.02536   2.03990   2.04919
 Alpha virt. eigenvalues --    2.06902   2.07671   2.08934   2.18540   2.21147
 Alpha virt. eigenvalues --    2.23228   2.25150   2.26731   2.26937   2.28407
 Alpha virt. eigenvalues --    2.34205   2.34326   2.36223   2.36743   2.37354
 Alpha virt. eigenvalues --    2.37382   2.38111   2.38890   2.42008   2.43144
 Alpha virt. eigenvalues --    2.44855   2.45185   2.46049   2.47038   2.48249
 Alpha virt. eigenvalues --    2.49860   2.51475   2.52834   2.55094   2.56444
 Alpha virt. eigenvalues --    2.57025   2.57982   2.61346   2.61411   2.62626
 Alpha virt. eigenvalues --    2.64642   2.65535   2.68860   2.72193   2.75760
 Alpha virt. eigenvalues --    2.76708   2.77723   2.78509   2.81391   2.83991
 Alpha virt. eigenvalues --    2.91833   2.92564   2.93640   2.96641   3.00841
 Alpha virt. eigenvalues --    3.02752   3.15476   3.17534   3.18395   3.19227
 Alpha virt. eigenvalues --    3.20082   3.20670   3.27041   3.31331   3.31611
 Alpha virt. eigenvalues --    3.37925   3.45123   3.46785   3.76204   3.85424
 Alpha virt. eigenvalues --    3.94745   3.99213   4.10811   4.12414   4.12692
 Alpha virt. eigenvalues --    4.14201   4.16161   4.19149   4.25982   4.35018
 Alpha virt. eigenvalues --    4.39819   4.41669   4.47619   4.56105   4.81512
 Alpha virt. eigenvalues --    4.84179
          Condensed to atoms (all electrons):
               1          2          3          4          5          6
     1  C    4.809752   0.532301  -0.028627  -0.045337  -0.029633   0.549271
     2  C    0.532301   4.835590   0.544652  -0.032629  -0.045350  -0.040464
     3  C   -0.028627   0.544652   4.931513   0.544168  -0.028613  -0.035774
     4  C   -0.045337  -0.032629   0.544168   4.835653   0.532654  -0.040469
     5  C   -0.029633  -0.045350  -0.028613   0.532654   4.809749   0.548949
     6  C    0.549271  -0.040464  -0.035774  -0.040469   0.548949   4.798974
     7  H    0.366231  -0.037245   0.004246   0.000868   0.004283  -0.039642
     8  H   -0.037490   0.368549  -0.046698   0.004796   0.000437   0.004517
     9  H    0.000437   0.004796  -0.046677   0.368522  -0.037466   0.004513
    10  H    0.004282   0.000868   0.004242  -0.037243   0.366213  -0.039635
    11  H   -0.040084   0.004732   0.000601   0.004732  -0.040089   0.368709
    12  C    0.004751  -0.036348   0.271442  -0.036338   0.004748   0.000223
    13  C   -0.000029  -0.000178  -0.106033  -0.000174  -0.000029  -0.000010
    14  C   -0.000000   0.000089  -0.000182   0.000268  -0.000016   0.000001
    15  C   -0.000016   0.000267  -0.000183   0.000089  -0.000000   0.000001
    16  C   -0.000000  -0.000000  -0.000039  -0.000012  -0.000000   0.000000
    17  H    0.000000  -0.000010   0.000212   0.000486   0.000024   0.000000
    18  C   -0.000000  -0.000012  -0.000040  -0.000000  -0.000000   0.000000
    19  H    0.000024   0.000488   0.000214  -0.000010   0.000000   0.000000
    20  C    0.000000   0.000001  -0.000014   0.000001   0.000000  -0.000000
    21  H    0.000000   0.000000   0.000003   0.000000   0.000000  -0.000000
    22  H    0.000000   0.000000   0.000003   0.000000   0.000000  -0.000000
    23  O    0.000039  -0.000351  -0.077087  -0.000354   0.000039  -0.000007
    24  C    0.000000  -0.000000  -0.000000  -0.000000   0.000000   0.000000
    25  N    0.000000  -0.000000  -0.000000  -0.000000   0.000000   0.000000
               7          8          9         10         11         12
     1  C    0.366231  -0.037490   0.000437   0.004282  -0.040084   0.004751
     2  C   -0.037245   0.368549   0.004796   0.000868   0.004732  -0.036348
     3  C    0.004246  -0.046698  -0.046677   0.004242   0.000601   0.271442
     4  C    0.000868   0.004796   0.368522  -0.037243   0.004732  -0.036338
     5  C    0.004283   0.000437  -0.037466   0.366213  -0.040089   0.004748
     6  C   -0.039642   0.004517   0.004513  -0.039635   0.368709   0.000223
     7  H    0.615754  -0.005703   0.000016  -0.000176  -0.005949  -0.000137
     8  H   -0.005703   0.621281  -0.000164   0.000016  -0.000172  -0.005922
     9  H    0.000016  -0.000164   0.621249  -0.005698  -0.000171  -0.005917
    10  H   -0.000176   0.000016  -0.005698   0.615761  -0.005950  -0.000137
    11  H   -0.005949  -0.000172  -0.000171  -0.005950   0.617968   0.000005
    12  C   -0.000137  -0.005922  -0.005917  -0.000137   0.000005   4.856585
    13  C    0.000003   0.000104   0.000101   0.000003  -0.000000   0.264975
    14  C    0.000000  -0.000012   0.000476   0.000000  -0.000000  -0.035656
    15  C    0.000000   0.000472  -0.000012   0.000000  -0.000000  -0.035667
    16  C    0.000000   0.000000   0.000030   0.000000  -0.000000   0.004644
    17  H   -0.000000  -0.000001   0.000902  -0.000002  -0.000000  -0.005274
    18  C    0.000000   0.000029   0.000000   0.000000  -0.000000   0.004647
    19  H   -0.000002   0.000897  -0.000001  -0.000000  -0.000000  -0.005278
    20  C   -0.000000   0.000000   0.000000  -0.000000   0.000000   0.000184
    21  H   -0.000000  -0.000000  -0.000001  -0.000000   0.000000  -0.000119
    22  H   -0.000000  -0.000001  -0.000000  -0.000000   0.000000  -0.000119
    23  O    0.000001   0.000515   0.000513   0.000001  -0.000000   0.518789
    24  C   -0.000000  -0.000000  -0.000000  -0.000000   0.000000  -0.000000
    25  N    0.000000   0.000000   0.000000   0.000000   0.000000  -0.000000
              13         14         15         16         17         18
     1  C   -0.000029  -0.000000  -0.000016  -0.000000   0.000000  -0.000000
     2  C   -0.000178   0.000089   0.000267  -0.000000  -0.000010  -0.000012
     3  C   -0.106033  -0.000182  -0.000183  -0.000039   0.000212  -0.000040
     4  C   -0.000174   0.000268   0.000089  -0.000012   0.000486  -0.000000
     5  C   -0.000029  -0.000016  -0.000000  -0.000000   0.000024  -0.000000
     6  C   -0.000010   0.000001   0.000001   0.000000   0.000000   0.000000
     7  H    0.000003   0.000000   0.000000   0.000000  -0.000000   0.000000
     8  H    0.000104  -0.000012   0.000472   0.000000  -0.000001   0.000029
     9  H    0.000101   0.000476  -0.000012   0.000030   0.000902   0.000000
    10  H    0.000003   0.000000   0.000000   0.000000  -0.000002   0.000000
    11  H   -0.000000  -0.000000  -0.000000  -0.000000  -0.000000  -0.000000
    12  C    0.264975  -0.035656  -0.035667   0.004644  -0.005274   0.004647
    13  C    4.925303   0.542241   0.542572  -0.034103  -0.043048  -0.034103
    14  C    0.542241   4.850123  -0.025193   0.509483   0.369141  -0.049255
    15  C    0.542572  -0.025193   4.850191  -0.049236   0.004396   0.509123
    16  C   -0.034103   0.509483  -0.049236   4.840438  -0.033531  -0.037256
    17  H   -0.043048   0.369141   0.004396  -0.033531   0.596635   0.000672
    18  C   -0.034103  -0.049255   0.509123  -0.037256   0.000672   4.840542
    19  H   -0.043032   0.004395   0.369161   0.000671  -0.000163  -0.033537
    20  C   -0.027184  -0.032766  -0.032765   0.546212   0.003569   0.546591
    21  H    0.004076  -0.034108   0.000621   0.368703  -0.005216   0.004374
    22  H    0.004075   0.000621  -0.034110   0.004370   0.000015   0.368699
    23  O   -0.077376  -0.000324  -0.000321   0.000038   0.000554   0.000039
    24  C    0.000689   0.004172   0.004169  -0.037151  -0.000155  -0.037173
    25  N    0.000007  -0.000061  -0.000061  -0.000091  -0.000000  -0.000086
              19         20         21         22         23         24
     1  C    0.000024   0.000000   0.000000   0.000000   0.000039   0.000000
     2  C    0.000488   0.000001   0.000000   0.000000  -0.000351  -0.000000
     3  C    0.000214  -0.000014   0.000003   0.000003  -0.077087  -0.000000
     4  C   -0.000010   0.000001   0.000000   0.000000  -0.000354  -0.000000
     5  C    0.000000   0.000000   0.000000   0.000000   0.000039   0.000000
     6  C    0.000000  -0.000000  -0.000000  -0.000000  -0.000007   0.000000
     7  H   -0.000002  -0.000000  -0.000000  -0.000000   0.000001  -0.000000
     8  H    0.000897   0.000000  -0.000000  -0.000001   0.000515  -0.000000
     9  H   -0.000001   0.000000  -0.000001  -0.000000   0.000513  -0.000000
    10  H   -0.000000  -0.000000  -0.000000  -0.000000   0.000001  -0.000000
    11  H   -0.000000   0.000000   0.000000   0.000000  -0.000000   0.000000
    12  C   -0.005278   0.000184  -0.000119  -0.000119   0.518789  -0.000000
    13  C   -0.043032  -0.027184   0.004076   0.004075  -0.077376   0.000689
    14  C    0.004395  -0.032766  -0.034108   0.000621  -0.000324   0.004172
    15  C    0.369161  -0.032765   0.000621  -0.034110  -0.000321   0.004169
    16  C    0.000671   0.546212   0.368703   0.004370   0.000038  -0.037151
    17  H   -0.000163   0.003569  -0.005216   0.000015   0.000554  -0.000155
    18  C   -0.033537   0.546591   0.004374   0.368699   0.000039  -0.037173
    19  H    0.596605   0.003569   0.000015  -0.005215   0.000552  -0.000155
    20  C    0.003569   4.848331  -0.038567  -0.038569  -0.000011   0.232287
    21  H    0.000015  -0.038567   0.583442  -0.000154   0.000001  -0.005809
    22  H   -0.005215  -0.038569  -0.000154   0.583460   0.000001  -0.005806
    23  O    0.000552  -0.000011   0.000001   0.000001   8.025140  -0.000000
    24  C   -0.000155   0.232287  -0.005809  -0.005806  -0.000000   4.696703
    25  N   -0.000000  -0.079633   0.000356   0.000356  -0.000000   0.874830
              25
     1  C    0.000000
     2  C   -0.000000
     3  C   -0.000000
     4  C   -0.000000
     5  C    0.000000
     6  C    0.000000
     7  H    0.000000
     8  H    0.000000
     9  H    0.000000
    10  H    0.000000
    11  H    0.000000
    12  C   -0.000000
    13  C    0.000007
    14  C   -0.000061
    15  C   -0.000061
    16  C   -0.000091
    17  H   -0.000000
    18  C   -0.000086
    19  H   -0.000000
    20  C   -0.079633
    21  H    0.000356
    22  H    0.000356
    23  O   -0.000000
    24  C    0.874830
    25  N    6.664217
 Mulliken charges:
               1
     1  C   -0.085874
     2  C   -0.099745
     3  C    0.068670
     4  C   -0.099673
     5  C   -0.085898
     6  C   -0.079159
     7  H    0.097451
     8  H    0.094551
     9  H    0.094554
    10  H    0.097453
    11  H    0.095668
    12  C    0.235918
    13  C    0.081150
    14  C   -0.103438
    15  C   -0.103498
    16  C   -0.083171
    17  H    0.110796
    18  C   -0.083254
    19  H    0.110801
    20  C    0.068765
    21  H    0.122383
    22  H    0.122374
    23  O   -0.390389
    24  C    0.273399
    25  N   -0.459833
 Sum of Mulliken charges =  -0.00000
 Mulliken charges with hydrogens summed into heavy atoms:
               1
     1  C    0.011577
     2  C   -0.005194
     3  C    0.068670
     4  C   -0.005119
     5  C    0.011555
     6  C    0.016509
    12  C    0.235918
    13  C    0.081150
    14  C    0.007358
    15  C    0.007303
    16  C    0.039212
    18  C    0.039120
    20  C    0.068765
    23  O   -0.390389
    24  C    0.273399
    25  N   -0.459833
 Electronic spatial extent (au):  <R**2>=           4553.2024
 Charge=             -0.0000 electrons
 Dipole moment (field-independent basis, Debye):
    X=              4.1488    Y=             -1.4173    Z=              0.0099  Tot=              4.3843
 Quadrupole moment (field-independent basis, Debye-Ang):
   XX=           -114.0121   YY=           -101.9284   ZZ=            -77.0481
   XY=            -15.0308   XZ=              0.0875   YZ=              0.1471
 Traceless Quadrupole moment (field-independent basis, Debye-Ang):
   XX=            -16.3492   YY=             -4.2656   ZZ=             20.6148
   XY=            -15.0308   XZ=              0.0875   YZ=              0.1471
 Octapole moment (field-independent basis, Debye-Ang**2):
  XXX=            246.0491  YYY=            -14.3460  ZZZ=             -0.0369  XYY=             13.0581
  XXY=             24.9650  XXZ=             -0.0956  XZZ=              2.3017  YZZ=              2.9233
  YYZ=              0.1120  XYZ=             -0.0357
 Hexadecapole moment (field-independent basis, Debye-Ang**3):
 XXXX=          -6301.2681 YYYY=           -700.2490 ZZZZ=           -535.2538 XXXY=           -471.6114
 XXXZ=              2.7269 YYYX=            -40.9065 YYYZ=              0.4320 ZZZX=              0.1410
 ZZZY=              0.2853 XXYY=          -1007.8301 XXZZ=           -844.5346 YYZZ=           -201.1982
 XXYZ=              0.9069 YYXZ=              0.1200 ZZXY=             -6.5928
 N-N= 9.018422648576D+02 E-N=-3.355192734371D+03  KE= 6.620441868351D+02
 Calling FoFJK, ICntrl=      2127 FMM=F ISym2X=0 I1Cent= 0 IOpClX= 0 NMat=1 NMatS=1 NMatT=0.
 ***** Axes restored to original set *****
 -------------------------------------------------------------------
 Center     Atomic                   Forces (Hartrees/Bohr)
 Number     Number              X              Y              Z
 -------------------------------------------------------------------
      1        6          -0.003923407   -0.007327504   -0.000352431
      2        6           0.003310482   -0.010970658    0.000783143
      3        6           0.021382452    0.000387197    0.005168700
      4        6           0.003697010    0.010550846    0.000709895
      5        6          -0.004163281    0.007335709   -0.000326596
      6        6          -0.009624615    0.000105550   -0.000000148
      7        1           0.005090304    0.007877019   -0.000138255
      8        1          -0.004481024    0.007882909   -0.000147990
      9        1          -0.004546247   -0.007874368   -0.000118434
     10        1           0.005154406   -0.007944322   -0.000124733
     11        1           0.009303472   -0.000008530    0.000109379
     12        6           0.023040952   -0.000067000   -0.045950567
     13        6          -0.014439632    0.000082241   -0.016043620
     14        6          -0.000915467    0.008690886   -0.000990738
     15        6          -0.000889705   -0.008757146   -0.000603143
     16        6           0.002224169    0.015023259    0.003308868
     17        1           0.002749503   -0.008146829    0.004781303
     18        6           0.002121255   -0.015404857    0.003033660
     19        1           0.002761272    0.008155634    0.004700631
     20        6           0.025107208    0.000430513    0.043625871
     21        1          -0.002288491   -0.009008171   -0.004190540
     22        1          -0.002276513    0.009047817   -0.004224157
     23        8          -0.030575138    0.000069277    0.055143012
     24        6          -0.046526528   -0.000200073   -0.080781773
     25        7           0.018707563    0.000070604    0.032628663
 -------------------------------------------------------------------
 Cartesian Forces:  Max     0.080781773 RMS     0.017195392

 GradGradGradGradGradGradGradGradGradGradGradGradGradGradGradGradGradGrad
 Berny optimization.
 FormGI is forming the generalized inverse of G from B-inverse, IUseBI=4.
 Internal  Forces:  Max     0.063037244 RMS     0.009192956
 Search for a local minimum.
 Step number   1 out of a maximum of  133
 All quantities printed in internal units (Hartrees-Bohrs-Radians)
 Mixed Optimization -- RFO/linear search
 Second derivative matrix not updated -- first step.
 ITU=  0
     Eigenvalues ---    0.00237   0.00237   0.00237   0.01564   0.01565
     Eigenvalues ---    0.02152   0.02152   0.02153   0.02153   0.02154
     Eigenvalues ---    0.02154   0.02155   0.02155   0.02155   0.02155
     Eigenvalues ---    0.02155   0.02155   0.02156   0.02156   0.02157
     Eigenvalues ---    0.02157   0.05044   0.05044   0.16000   0.16000
     Eigenvalues ---    0.16000   0.16000   0.16000   0.16000   0.16000
     Eigenvalues ---    0.16000   0.16000   0.22000   0.22000   0.22000
     Eigenvalues ---    0.22982   0.23486   0.24000   0.25000   0.25000
     Eigenvalues ---    0.25000   0.25000   0.25000   0.28519   0.28519
     Eigenvalues ---    0.28519   0.33709   0.33709   0.33718   0.33718
     Eigenvalues ---    0.33720   0.33720   0.33725   0.33726   0.33726
     Eigenvalues ---    0.42116   0.42121   0.42305   0.42482   0.46412
     Eigenvalues ---    0.46412   0.46453   0.46453   0.46466   0.46466
     Eigenvalues ---    0.46497   0.46497   0.80209   1.36980
 RFO step:  Lambda=-2.18120610D-02 EMin= 2.36824204D-03
 Linear search not attempted -- first point.
 Iteration  1 RMS(Cart)=  0.05638943 RMS(Int)=  0.00021624
 Iteration  2 RMS(Cart)=  0.00028710 RMS(Int)=  0.00000458
 Iteration  3 RMS(Cart)=  0.00000014 RMS(Int)=  0.00000458
 Variable       Old X    -DE/DX   Delta X   Delta X   Delta X     New X
                                 (Linear)    (Quad)   (Total)
    R1        2.63647  -0.00098   0.00000  -0.00201  -0.00201   2.63446
    R2        2.63584   0.00047   0.00000   0.00080   0.00080   2.63665
    R3        2.07796  -0.00937   0.00000  -0.02609  -0.02609   2.05188
    R4        2.63562   0.00192   0.00000   0.00411   0.00411   2.63973
    R5        2.07805  -0.00907   0.00000  -0.02526  -0.02526   2.05279
    R6        2.63697   0.00150   0.00000   0.00324   0.00324   2.64022
    R7        2.91018  -0.02120   0.00000  -0.06906  -0.06906   2.84111
    R8        2.63584  -0.00086   0.00000  -0.00177  -0.00177   2.63407
    R9        2.07809  -0.00909   0.00000  -0.02533  -0.02533   2.05277
   R10        2.63643   0.00036   0.00000   0.00057   0.00057   2.63699
   R11        2.07825  -0.00946   0.00000  -0.02635  -0.02635   2.05190
   R12        2.07795  -0.00930   0.00000  -0.02591  -0.02591   2.05204
   R13        2.91018  -0.01960   0.00000  -0.06384  -0.06384   2.84634
   R14        2.37803  -0.06304   0.00000  -0.07651  -0.07651   2.30152
   R15        2.63647   0.00275   0.00000   0.00559   0.00559   2.64206
   R16        2.63584   0.00287   0.00000   0.00585   0.00584   2.64169
   R17        2.63562  -0.00349   0.00000  -0.00717  -0.00717   2.62845
   R18        2.07805  -0.00981   0.00000  -0.02734  -0.02734   2.05071
   R19        2.63643  -0.00369   0.00000  -0.00759  -0.00759   2.62884
   R20        2.07795  -0.00979   0.00000  -0.02726  -0.02726   2.05069
   R21        2.63697   0.00194   0.00000   0.00404   0.00404   2.64102
   R22        2.07809  -0.01019   0.00000  -0.02838  -0.02838   2.04971
   R23        2.63584   0.00227   0.00000   0.00471   0.00472   2.64056
   R24        2.07825  -0.01023   0.00000  -0.02851  -0.02851   2.04973
   R25        2.91018  -0.05561   0.00000  -0.18114  -0.18114   2.72903
   R26        2.16676   0.03761   0.00000   0.02703   0.02703   2.19379
    A1        2.09437   0.00044   0.00000   0.00159   0.00159   2.09596
    A2        2.09435  -0.00071   0.00000  -0.00348  -0.00348   2.09086
    A3        2.09447   0.00027   0.00000   0.00189   0.00189   2.09636
    A4        2.09455  -0.00091   0.00000  -0.00336  -0.00337   2.09118
    A5        2.09406   0.00052   0.00000   0.00201   0.00201   2.09607
    A6        2.09458   0.00040   0.00000   0.00135   0.00135   2.09593
    A7        2.09429   0.00068   0.00000   0.00315   0.00315   2.09744
    A8        2.09462  -0.00035   0.00000  -0.00161  -0.00161   2.09300
    A9        2.09427  -0.00033   0.00000  -0.00154  -0.00155   2.09273
   A10        2.09429  -0.00086   0.00000  -0.00320  -0.00321   2.09108
   A11        2.09407   0.00043   0.00000   0.00158   0.00158   2.09564
   A12        2.09483   0.00043   0.00000   0.00162   0.00162   2.09644
   A13        2.09448   0.00045   0.00000   0.00157   0.00157   2.09605
   A14        2.09459  -0.00073   0.00000  -0.00358  -0.00358   2.09101
   A15        2.09411   0.00028   0.00000   0.00201   0.00201   2.09613
   A16        2.09440   0.00020   0.00000   0.00025   0.00025   2.09465
   A17        2.09453  -0.00011   0.00000  -0.00017  -0.00017   2.09437
   A18        2.09426  -0.00009   0.00000  -0.00009  -0.00009   2.09417
   A19        2.09241  -0.00879   0.00000  -0.03235  -0.03235   2.06007
   A20        2.09836   0.00604   0.00000   0.02221   0.02221   2.12056
   A21        2.09241   0.00276   0.00000   0.01014   0.01014   2.10256
   A22        2.09435  -0.00051   0.00000  -0.00198  -0.00198   2.09237
   A23        2.09447  -0.00052   0.00000  -0.00201  -0.00201   2.09246
   A24        2.09437   0.00103   0.00000   0.00399   0.00398   2.09834
   A25        2.09455   0.00016   0.00000   0.00099   0.00099   2.09553
   A26        2.09406   0.00063   0.00000   0.00343   0.00343   2.09748
   A27        2.09458  -0.00079   0.00000  -0.00442  -0.00442   2.09016
   A28        2.09440   0.00018   0.00000   0.00110   0.00109   2.09549
   A29        2.09453   0.00059   0.00000   0.00321   0.00321   2.09774
   A30        2.09426  -0.00077   0.00000  -0.00431  -0.00431   2.08994
   A31        2.09429  -0.00302   0.00000  -0.01193  -0.01193   2.08237
   A32        2.09462   0.00188   0.00000   0.00801   0.00800   2.10262
   A33        2.09427   0.00114   0.00000   0.00393   0.00392   2.09820
   A34        2.09448  -0.00306   0.00000  -0.01206  -0.01205   2.08242
   A35        2.09411   0.00192   0.00000   0.00821   0.00821   2.10232
   A36        2.09459   0.00113   0.00000   0.00385   0.00385   2.09844
   A37        2.09429   0.00470   0.00000   0.01791   0.01792   2.11221
   A38        2.09407  -0.00231   0.00000  -0.00880  -0.00881   2.08526
   A39        2.09483  -0.00239   0.00000  -0.00911  -0.00912   2.08571
   A40        3.14159  -0.00001   0.00000  -0.00016  -0.00016   3.14143
   A41        3.14159  -0.00005   0.00000  -0.00072  -0.00072   3.14087
    D1        0.00056  -0.00015   0.00000  -0.00337  -0.00336  -0.00280
    D2        3.14078   0.00015   0.00000   0.00360   0.00361  -3.13880
    D3       -3.14112  -0.00019   0.00000  -0.00429  -0.00428   3.13778
    D4       -0.00091   0.00011   0.00000   0.00269   0.00269   0.00178
    D5        0.00026   0.00006   0.00000   0.00142   0.00143   0.00169
    D6        3.14140   0.00003   0.00000   0.00072   0.00072  -3.14106
    D7       -3.14124   0.00010   0.00000   0.00234   0.00235  -3.13889
    D8       -0.00010   0.00007   0.00000   0.00164   0.00164   0.00154
    D9       -0.00099   0.00023   0.00000   0.00508   0.00508   0.00408
   D10        3.14093   0.00040   0.00000   0.00947   0.00948  -3.13278
   D11       -3.14120  -0.00007   0.00000  -0.00190  -0.00189   3.14009
   D12        0.00072   0.00009   0.00000   0.00250   0.00250   0.00322
   D13        0.00060  -0.00022   0.00000  -0.00485  -0.00485  -0.00425
   D14       -3.14153   0.00006   0.00000   0.00164   0.00164  -3.13989
   D15       -3.14132  -0.00039   0.00000  -0.00924  -0.00925   3.13262
   D16       -0.00026  -0.00010   0.00000  -0.00275  -0.00276  -0.00302
   D17       -1.57193  -0.00009   0.00000  -0.00246  -0.00245  -1.57438
   D18        1.56966  -0.00009   0.00000  -0.00256  -0.00255   1.56711
   D19        1.56999   0.00008   0.00000   0.00194   0.00194   1.57192
   D20       -1.57161   0.00007   0.00000   0.00184   0.00184  -1.56977
   D21        0.00023   0.00013   0.00000   0.00291   0.00290   0.00313
   D22       -3.14158   0.00018   0.00000   0.00404   0.00403  -3.13755
   D23       -3.14083  -0.00015   0.00000  -0.00358  -0.00359   3.13877
   D24        0.00054  -0.00010   0.00000  -0.00246  -0.00246  -0.00192
   D25       -0.00066  -0.00005   0.00000  -0.00120  -0.00120  -0.00186
   D26        3.14138  -0.00002   0.00000  -0.00049  -0.00049   3.14089
   D27        3.14116  -0.00010   0.00000  -0.00232  -0.00233   3.13883
   D28        0.00001  -0.00007   0.00000  -0.00162  -0.00162  -0.00161
   D29       -1.57053  -0.00012   0.00000  -0.00334  -0.00333  -1.57387
   D30        1.57097   0.00012   0.00000   0.00324   0.00323   1.57420
   D31        1.57106  -0.00012   0.00000  -0.00324  -0.00323   1.56783
   D32       -1.57063   0.00012   0.00000   0.00334   0.00333  -1.56730
   D33       -3.14112   0.00036   0.00000   0.00883   0.00884  -3.13228
   D34       -0.00091   0.00019   0.00000   0.00500   0.00500   0.00409
   D35        0.00056   0.00012   0.00000   0.00225   0.00226   0.00282
   D36        3.14078  -0.00005   0.00000  -0.00158  -0.00158   3.13919
   D37       -3.14124  -0.00038   0.00000  -0.00935  -0.00936   3.13258
   D38       -0.00010  -0.00017   0.00000  -0.00448  -0.00448  -0.00458
   D39        0.00026  -0.00014   0.00000  -0.00277  -0.00278  -0.00252
   D40        3.14140   0.00008   0.00000   0.00210   0.00210  -3.13968
   D41       -0.00099  -0.00007   0.00000  -0.00155  -0.00154  -0.00253
   D42        3.14093  -0.00009   0.00000  -0.00205  -0.00204   3.13889
   D43       -3.14120   0.00009   0.00000   0.00227   0.00227  -3.13893
   D44        0.00072   0.00008   0.00000   0.00178   0.00178   0.00249
   D45       -0.00066   0.00012   0.00000   0.00261   0.00260   0.00194
   D46        3.14116   0.00012   0.00000   0.00267   0.00266  -3.13937
   D47        3.14138  -0.00009   0.00000  -0.00226  -0.00226   3.13912
   D48        0.00001  -0.00009   0.00000  -0.00220  -0.00220  -0.00219
   D49        0.00060   0.00006   0.00000   0.00139   0.00140   0.00199
   D50       -3.14153   0.00009   0.00000   0.00194   0.00194  -3.13959
   D51       -3.14132   0.00008   0.00000   0.00189   0.00189  -3.13943
   D52       -0.00026   0.00010   0.00000   0.00243   0.00243   0.00217
   D53        0.00023  -0.00008   0.00000  -0.00192  -0.00192  -0.00169
   D54       -3.14083  -0.00011   0.00000  -0.00246  -0.00246   3.13989
   D55       -3.14158  -0.00008   0.00000  -0.00198  -0.00199   3.13961
   D56        0.00054  -0.00011   0.00000  -0.00253  -0.00253  -0.00199
         Item               Value     Threshold  Converged?
 Maximum Force            0.063037     0.000450     NO 
 RMS     Force            0.009193     0.000300     NO 
 Maximum Displacement     0.216824     0.001800     NO 
 RMS     Displacement     0.056314     0.001200     NO 
 Predicted change in Energy=-1.154290D-02
 GradGradGradGradGradGradGradGradGradGradGradGradGradGradGradGradGradGrad

                          Input orientation:                          
 ---------------------------------------------------------------------
 Center     Atomic      Atomic             Coordinates (Angstroms)
 Number     Number       Type             X           Y           Z
 ---------------------------------------------------------------------
      1          6           0       -4.062678    0.314513   -0.022496
      2          6           0       -2.668635    0.311946   -0.034691
      3          6           0       -1.971906    1.522641   -0.043707
      4          6           0       -2.668398    2.733773   -0.035597
      5          6           0       -4.062233    2.731499   -0.023605
      6          6           0       -4.759938    1.523031   -0.015930
      7          1           0       -4.603981   -0.626737   -0.019078
      8          1           0       -2.125697   -0.628896   -0.042429
      9          1           0       -2.124920    3.674280   -0.044229
     10          1           0       -4.603491    3.672792   -0.021107
     11          1           0       -5.845785    1.523302   -0.005933
     12          6           0       -0.468656    1.522613   -0.068344
     13          6           0        0.260931    1.524728    1.249377
     14          6           0        0.601598    2.737916    1.855057
     15          6           0        0.601973    0.313724    1.858756
     16          6           0        1.285129    2.744258    3.066419
     17          1           0        0.338420    3.677535    1.380199
     18          6           0        1.285289    0.311464    3.070486
     19          1           0        0.338847   -0.627596    1.387274
     20          6           0        1.622227    1.528744    3.668155
     21          1           0        1.554898    3.681605    3.540860
     22          1           0        1.554875   -0.624454    3.547869
     23          8           0        0.150585    1.520835   -1.117080
     24          6           0        2.329724    1.531152    4.927120
     25          7           0        2.897873    1.533275    5.939491
 ---------------------------------------------------------------------
                    Distance matrix (angstroms):
                    1          2          3          4          5
     1  C    0.000000
     2  C    1.394098   0.000000
     3  C    2.414818   1.396887   0.000000
     4  C    2.792311   2.421826   1.397142   0.000000
     5  C    2.416986   2.792216   2.414790   1.393889   0.000000
     6  C    1.395253   2.416739   2.788170   2.416779   1.395437
     7  H    1.085806   2.151031   3.398272   3.878116   3.401656
     8  H    2.154602   1.086290   2.157027   3.406187   3.878502
     9  H    3.878584   3.406025   2.157073   1.086277   2.154633
    10  H    3.401546   3.878032   3.398367   2.150942   1.085817
    11  H    2.154279   3.400366   3.874063   3.400281   2.154323
    12  C    3.791913   2.511326   1.503452   2.511343   3.791729
    13  C    4.666463   3.420823   2.580239   3.419637   4.665461
    14  C    5.581537   4.488976   3.421275   3.777229   5.027995
    15  C    5.029720   3.779157   3.421360   4.487821   5.580658
    16  C    6.636572   5.582587   4.666209   5.025235   6.175977
    17  H    5.713766   4.729850   3.465354   3.454868   4.715018
    18  C    6.177969   5.027489   4.666312   5.580947   6.635207
    19  H    4.716825   3.456830   3.465661   4.729364   5.713458
    20  C    6.885740   5.796824   5.166794   5.794768   6.883953
    21  H    7.456002   6.478997   5.472531   5.614772   6.720140
    22  H    6.722058   5.616905   5.472442   6.477264   7.454512
    23  O    4.517180   3.252842   2.378466   3.253842   4.517658
    24  C    8.175678   7.147701   6.573676   7.145354   8.173594
    25  N    9.245537   8.256423   7.714501   8.253863   9.243232
                    6          7          8          9         10
     6  C    0.000000
     7  H    2.155420   0.000000
     8  H    3.401576   2.478395   0.000000
     9  H    3.401763   4.964386   4.303177   0.000000
    10  H    2.155452   4.299530   4.964316   2.478679   0.000000
    11  H    1.085893   2.482925   4.297946   4.298024   2.482707
    12  C    4.291603   4.660800   2.715778   2.715412   4.660725
    13  C    5.177850   5.468560   3.464514   3.462120   5.467258
    14  C    5.807117   6.475441   4.730118   3.452240   5.611322
    15  C    5.807492   5.613617   3.455897   4.727646   6.474108
    16  C    6.894570   7.454228   5.716366   4.708450   6.713481
    17  H    5.708267   6.701646   5.161501   2.845531   5.136746
    18  C    6.894826   6.716333   4.712679   5.713100   7.452127
    19  H    5.708921   5.139005   2.849216   5.159989   6.701013
    20  C    7.369162   7.550329   5.698315   5.694403   7.547659
    21  H    7.562232   8.316656   6.705756   5.137506   7.114312
    22  H    7.562356   7.117207   5.141680   6.702475   8.314408
    23  O    5.032472   5.331377   3.310239   3.311534   5.332290
    24  C    8.642749   8.786218   7.015198   7.010789   8.782997
    25  N    9.700991   9.820796   8.105222   8.100448   9.817165
                   11         12         13         14         15
    11  H    0.000000
    12  C    5.377492   0.000000
    13  C    6.234403   1.506217   0.000000
    14  C    6.819628   2.514334   1.398116   0.000000
    15  C    6.820098   2.514234   1.397921   2.424195   0.000000
    16  C    7.860026   3.794063   2.416169   1.390918   2.798686
    17  H    6.693763   2.719068   2.158169   1.085189   3.407888
    18  C    7.860351   3.794135   2.416145   2.798638   1.391120
    19  H    6.694554   2.719243   2.158144   3.408010   1.085179
    20  C    8.322870   4.281735   2.775542   2.406472   2.406474
    21  H    8.485760   4.667159   3.402553   2.154359   3.883319
    22  H    8.485997   4.667073   3.402402   3.883283   2.154368
    23  O    6.098452   1.217912   2.369032   3.243192   3.242911
    24  C    9.548509   5.725876   4.219685   3.725624   3.725870
    25  N   10.573539   6.886778   5.380586   4.838041   4.838477
                   16         17         18         19         20
    16  C    0.000000
    17  H    2.147231   0.000000
    18  C    2.432797   3.883821   0.000000
    19  H    3.883861   4.305137   2.147275   0.000000
    20  C    1.397567   3.391195   1.397322   3.391060   0.000000
    21  H    1.084662   2.479575   3.413473   4.968494   2.157672
    22  H    3.413616   4.968467   1.084672   2.479295   2.157607
    23  O    4.503955   3.305002   4.503981   3.304995   5.006423
    24  C    2.454590   4.599229   2.454704   4.599380   1.444143
    25  N    3.510266   5.651177   3.510618   5.651607   2.605045
                   21         22         23         24         25
    21  H    0.000000
    22  H    4.306065   0.000000
    23  O    5.323291   5.323162   0.000000
    24  C    2.673298   2.673829   6.425037   0.000000
    25  N    3.488887   3.489885   7.572513   1.160902   0.000000
 Stoichiometry    C14H9NO
 Framework group  C1[X(C14H9NO)]
 Deg. of freedom    69
 Full point group                 C1      NOp   1
 Largest Abelian subgroup         C1      NOp   1
 Largest concise Abelian subgroup C1      NOp   1
                         Standard orientation:                         
 ---------------------------------------------------------------------
 Center     Atomic      Atomic             Coordinates (Angstroms)
 Number     Number       Type             X           Y           Z
 ---------------------------------------------------------------------
      1          6           0        3.599453   -0.960193    1.215738
      2          6           0        2.520085   -0.077892    1.211376
      3          6           0        1.981131    0.354213   -0.002752
      4          6           0        2.517820   -0.099295   -1.210355
      5          6           0        3.597158   -0.981264   -1.201155
      6          6           0        4.137710   -1.412954    0.010741
      7          1           0        4.020424   -1.293102    2.159629
      8          1           0        2.102602    0.276706    2.149456
      9          1           0        2.098418    0.239047   -2.153554
     10          1           0        4.016611   -1.330728   -2.139735
     11          1           0        4.978141   -2.100569    0.015872
     12          6           0        0.824395    1.314564   -0.010287
     13          6           0       -0.569513    0.743874   -0.005633
     14          6           0       -1.215684    0.473751   -1.215684
     15          6           0       -1.215643    0.493381    1.208432
     16          6           0       -2.507096   -0.042882   -1.215865
     17          1           0       -0.714195    0.670599   -2.157700
     18          6           0       -2.507107   -0.023595    1.216856
     19          1           0       -0.714251    0.704916    2.147300
     20          6           0       -3.145360   -0.289845    0.002668
     21          1           0       -3.015516   -0.252531   -2.150770
     22          1           0       -3.015179   -0.218435    2.155160
     23          8           0        0.998146    2.519981   -0.019778
     24          6           0       -4.485258   -0.828553    0.006677
     25          7           0       -5.562110   -1.262230    0.009716
 ---------------------------------------------------------------------
 Rotational constants (GHZ):           1.2584377           0.2543264           0.2487060
 Standard basis: 6-31G(d,p) (6D, 7F)
 There are   285 symmetry adapted cartesian basis functions of A   symmetry.
 There are   285 symmetry adapted basis functions of A   symmetry.
   285 basis functions,   511 primitive gaussians,   285 cartesian basis functions
    54 alpha electrons       54 beta electrons
       nuclear repulsion energy       912.6727963809 Hartrees.
 NAtoms=   25 NActive=   25 NUniq=   25 SFac= 1.00D+00 NAtFMM=   60 NAOKFM=F Big=F
 Integral buffers will be    131072 words long.
 Raffenetti 2 integral format.
 Two-electron integral symmetry is turned on.
 Nuclear repulsion after empirical dispersion term =      912.6178703863 Hartrees.
 One-electron integrals computed using PRISM.
 NBasis=   285 RedAO= T EigKep=  4.23D-04  NBF=   285
 NBsUse=   285 1.00D-06 EigRej= -1.00D+00 NBFU=   285
 Initial guess from the checkpoint file:  "target.chk"
 B after Tr=    -0.000000    0.000000   -0.000000
         Rot=    0.999999    0.001084   -0.000016   -0.000383 Ang=   0.13 deg.
 ExpMin= 1.61D-01 ExpMax= 5.48D+03 ExpMxC= 8.25D+02 IAcc=3 IRadAn=         5 AccDes= 0.00D+00
 Harris functional with IExCor=  402 and IRadAn=       5 diagonalized for initial guess.
 HarFok:  IExCor=  402 AccDes= 0.00D+00 IRadAn=         5 IDoV= 1 UseB2=F ITyADJ=14
 ICtDFT=  3500011 ScaDFX=  1.000000  1.000000  1.000000  1.000000
 FoFCou: FMM=F IPFlag=           0 FMFlag=      100000 FMFlg1=           0
         NFxFlg=           0 DoJE=T BraDBF=F KetDBF=T FulRan=T
         wScrn=  0.000000 ICntrl=       500 IOpCl=  0 I1Cent=   200000004 NGrid=           0
         NMat0=    1 NMatS0=      1 NMatT0=    0 NMatD0=    1 NMtDS0=    0 NMtDT0=    0
 Petite list used in FoFCou.
 Requested convergence on RMS density matrix=1.00D-08 within 128 cycles.
 Requested convergence on MAX density matrix=1.00D-06.
 Requested convergence on             energy=1.00D-06.
 No special actions if energy rises.
 Integral accuracy reduced to 1.0D-05 until final iterations.
 Initial convergence to 1.0D-05 achieved.  Increase integral accuracy.
 SCF Done:  E(RB3LYP) =  -668.923076671     A.U. after   13 cycles
            NFock= 13  Conv=0.35D-08     -V/T= 2.0096
 Calling FoFJK, ICntrl=      2127 FMM=F ISym2X=0 I1Cent= 0 IOpClX= 0 NMat=1 NMatS=1 NMatT=0.
 ***** Axes restored to original set *****
 -------------------------------------------------------------------
 Center     Atomic                   Forces (Hartrees/Bohr)
 Number     Number              X              Y              Z
 -------------------------------------------------------------------
      1        6          -0.000225448   -0.000187701   -0.000051369
      2        6          -0.001146460   -0.000892058    0.000252160
      3        6           0.002538150    0.000126493    0.002878312
      4        6          -0.000975110    0.000734814    0.000237646
      5        6          -0.000384589    0.000145511   -0.000040803
      6        6          -0.000698559    0.000073766   -0.000026493
      7        1           0.000136605    0.000188048   -0.000049780
      8        1          -0.000071602    0.000407171   -0.000075901
      9        1          -0.000097384   -0.000385142   -0.000064569
     10        1           0.000149184   -0.000186656   -0.000049111
     11        1           0.000339500   -0.000005895    0.000044236
     12        6           0.003488712   -0.000033081   -0.008245880
     13        6          -0.003513614    0.000083859   -0.000091255
     14        6           0.000644236    0.000438104    0.001209983
     15        6           0.000668153   -0.000495404    0.001384990
     16        6          -0.002296321    0.002992405   -0.004222018
     17        1          -0.000139921   -0.000279221   -0.000184912
     18        6          -0.002352370   -0.003146207   -0.004357683
     19        1          -0.000135831    0.000283867   -0.000211191
     20        6           0.007808891    0.000153408    0.013811917
     21        1           0.000242060   -0.000857881    0.000311512
     22        1           0.000255025    0.000874205    0.000319322
     23        8          -0.001116516   -0.000003992    0.002633382
     24        6          -0.005243267   -0.000034100   -0.009253446
     25        7           0.002126477    0.000005686    0.003840950
 -------------------------------------------------------------------
 Cartesian Forces:  Max     0.013811917 RMS     0.002775891

 GradGradGradGradGradGradGradGradGradGradGradGradGradGradGradGradGradGrad
 Berny optimization.
 Using GEDIIS/GDIIS optimizer.
 FormGI is forming the generalized inverse of G from B-inverse, IUseBI=4.
 Internal  Forces:  Max     0.006245552 RMS     0.001246169
 Search for a local minimum.
 Step number   2 out of a maximum of  133
 All quantities printed in internal units (Hartrees-Bohrs-Radians)
 Mixed Optimization -- RFO/linear search
 Update second derivatives using D2CorX and points    1    2
 DE= -1.23D-02 DEPred=-1.15D-02 R= 1.06D+00
 TightC=F SS=  1.41D+00  RLast= 2.42D-01 DXNew= 5.0454D-01 7.2496D-01
 Trust test= 1.06D+00 RLast= 2.42D-01 DXMaxT set to 5.05D-01
 ITU=  1  0
 Use linear search instead of GDIIS.
     Eigenvalues ---    0.00237   0.00237   0.00237   0.01566   0.01568
     Eigenvalues ---    0.02152   0.02152   0.02153   0.02154   0.02154
     Eigenvalues ---    0.02154   0.02155   0.02155   0.02155   0.02155
     Eigenvalues ---    0.02155   0.02156   0.02156   0.02156   0.02157
     Eigenvalues ---    0.02157   0.05044   0.05044   0.15976   0.16000
     Eigenvalues ---    0.16000   0.16000   0.16000   0.16000   0.16000
     Eigenvalues ---    0.16000   0.16009   0.21997   0.22000   0.22000
     Eigenvalues ---    0.22998   0.23205   0.23564   0.24478   0.24999
     Eigenvalues ---    0.25000   0.25000   0.25001   0.27892   0.28519
     Eigenvalues ---    0.29986   0.33705   0.33711   0.33715   0.33718
     Eigenvalues ---    0.33720   0.33723   0.33725   0.33726   0.34161
     Eigenvalues ---    0.42129   0.42179   0.42294   0.42628   0.46311
     Eigenvalues ---    0.46412   0.46440   0.46453   0.46460   0.46468
     Eigenvalues ---    0.46496   0.46636   0.80043   1.35835
 RFO step:  Lambda=-5.29682578D-04 EMin= 2.36824117D-03
 Quartic linear search produced a step of  0.06679.
 Iteration  1 RMS(Cart)=  0.01650436 RMS(Int)=  0.00005875
 Iteration  2 RMS(Cart)=  0.00016522 RMS(Int)=  0.00000439
 Iteration  3 RMS(Cart)=  0.00000000 RMS(Int)=  0.00000439
 Variable       Old X    -DE/DX   Delta X   Delta X   Delta X     New X
                                 (Linear)    (Quad)   (Total)
    R1        2.63446   0.00029  -0.00013   0.00078   0.00065   2.63511
    R2        2.63665   0.00003   0.00005  -0.00006  -0.00001   2.63664
    R3        2.05188  -0.00023  -0.00174   0.00082  -0.00092   2.05095
    R4        2.63973   0.00125   0.00027   0.00272   0.00299   2.64273
    R5        2.05279  -0.00039  -0.00169   0.00028  -0.00141   2.05138
    R6        2.64022   0.00113   0.00022   0.00250   0.00272   2.64294
    R7        2.84111   0.00049  -0.00461   0.00614   0.00152   2.84264
    R8        2.63407   0.00039  -0.00012   0.00099   0.00087   2.63494
    R9        2.05277  -0.00038  -0.00169   0.00030  -0.00139   2.05137
   R10        2.63699  -0.00005   0.00004  -0.00024  -0.00020   2.63679
   R11        2.05190  -0.00024  -0.00176   0.00082  -0.00094   2.05096
   R12        2.05204  -0.00034  -0.00173   0.00047  -0.00126   2.05078
   R13        2.84634   0.00130  -0.00426   0.00884   0.00458   2.85092
   R14        2.30152  -0.00284  -0.00511   0.00003  -0.00508   2.29644
   R15        2.64206   0.00087   0.00037   0.00136   0.00173   2.64379
   R16        2.64169   0.00095   0.00039   0.00154   0.00192   2.64361
   R17        2.62845   0.00038  -0.00048   0.00125   0.00078   2.62923
   R18        2.05071  -0.00013  -0.00183   0.00122  -0.00060   2.05011
   R19        2.62884   0.00028  -0.00051   0.00106   0.00055   2.62939
   R20        2.05069  -0.00012  -0.00182   0.00124  -0.00058   2.05011
   R21        2.64102   0.00425   0.00027   0.00985   0.01013   2.65115
   R22        2.04971  -0.00054  -0.00190  -0.00003  -0.00193   2.04778
   R23        2.64056   0.00436   0.00032   0.01006   0.01039   2.65094
   R24        2.04973  -0.00055  -0.00190  -0.00004  -0.00195   2.04778
   R25        2.72903  -0.00625  -0.01210  -0.01199  -0.02409   2.70495
   R26        2.19379   0.00439   0.00181   0.00216   0.00396   2.19775
    A1        2.09596   0.00023   0.00011   0.00067   0.00078   2.09674
    A2        2.09086  -0.00014  -0.00023  -0.00030  -0.00053   2.09033
    A3        2.09636  -0.00009   0.00013  -0.00038  -0.00025   2.09611
    A4        2.09118   0.00048  -0.00022   0.00265   0.00242   2.09360
    A5        2.09607  -0.00010   0.00013  -0.00039  -0.00025   2.09581
    A6        2.09593  -0.00039   0.00009  -0.00227  -0.00218   2.09374
    A7        2.09744  -0.00124   0.00021  -0.00525  -0.00504   2.09240
    A8        2.09300   0.00060  -0.00011   0.00254   0.00243   2.09543
    A9        2.09273   0.00064  -0.00010   0.00272   0.00261   2.09534
   A10        2.09108   0.00050  -0.00021   0.00272   0.00250   2.09359
   A11        2.09564  -0.00036   0.00011  -0.00210  -0.00200   2.09364
   A12        2.09644  -0.00014   0.00011  -0.00062  -0.00052   2.09593
   A13        2.09605   0.00021   0.00010   0.00060   0.00070   2.09675
   A14        2.09101  -0.00014  -0.00024  -0.00033  -0.00057   2.09044
   A15        2.09613  -0.00007   0.00013  -0.00027  -0.00013   2.09599
   A16        2.09465  -0.00018   0.00002  -0.00139  -0.00137   2.09328
   A17        2.09437   0.00008  -0.00001   0.00066   0.00065   2.09501
   A18        2.09417   0.00010  -0.00001   0.00073   0.00073   2.09489
   A19        2.06007  -0.00540  -0.00216  -0.02089  -0.02305   2.03702
   A20        2.12056   0.00314   0.00148   0.01190   0.01338   2.13394
   A21        2.10256   0.00227   0.00068   0.00899   0.00967   2.11223
   A22        2.09237   0.00051  -0.00013   0.00308   0.00295   2.09532
   A23        2.09246   0.00048  -0.00013   0.00299   0.00286   2.09532
   A24        2.09834  -0.00099   0.00027  -0.00610  -0.00586   2.09249
   A25        2.09553   0.00097   0.00007   0.00349   0.00355   2.09908
   A26        2.09748  -0.00083   0.00023  -0.00436  -0.00413   2.09336
   A27        2.09016  -0.00014  -0.00030   0.00087   0.00058   2.09073
   A28        2.09549   0.00098   0.00007   0.00354   0.00360   2.09909
   A29        2.09774  -0.00086   0.00021  -0.00451  -0.00429   2.09345
   A30        2.08994  -0.00012  -0.00029   0.00097   0.00068   2.09062
   A31        2.08237   0.00132  -0.00080   0.00741   0.00662   2.08899
   A32        2.10262   0.00013   0.00053   0.00137   0.00190   2.10452
   A33        2.09820  -0.00145   0.00026  -0.00878  -0.00852   2.08967
   A34        2.08242   0.00131  -0.00081   0.00737   0.00657   2.08899
   A35        2.10232   0.00016   0.00055   0.00153   0.00207   2.10439
   A36        2.09844  -0.00146   0.00026  -0.00889  -0.00864   2.08980
   A37        2.11221  -0.00360   0.00120  -0.01571  -0.01449   2.09772
   A38        2.08526   0.00183  -0.00059   0.00796   0.00736   2.09262
   A39        2.08571   0.00177  -0.00061   0.00775   0.00713   2.09284
   A40        3.14143   0.00000  -0.00001   0.00013   0.00012   3.14155
   A41        3.14087  -0.00004  -0.00005  -0.00082  -0.00087   3.14001
[...]
 05126839,0.09573287,0.00000369,-0.00000831,-0.00000776,0.00003240,-0.0
 0000062,-0.00009266,0.00038901,-0.00006276,0.00002680,0.00007532,0.000
 05066,0.00016419,0.00004215,-0.00000190,-0.00002379,0.00001916,-0.0000
 0486,-0.00000856,0.00001505,0.00000694,0.00000474,-0.00004175,-0.00002
 785,-0.00000369,0.00000252,-0.00001114,-0.00002629,0.00002509,-0.00000
 098,-0.00000578,0.00000664,-0.00000054,-0.00000283,-0.00002889,-0.0012
 8660,-0.00111190,0.00122283,0.00063879,0.00394023,0.06775608,0.1133809
 6,-0.26456642,-0.00126994,0.00055994,0.00117208,0.00847518,0.01108102,
 -0.01575746,-0.07150872,-0.12291974,0.27814873,-0.00016667,0.00002498,
 0.00007685,0.00026140,-0.00000237,0.00007770,-0.00019644,0.00064488,0.
 00015355,0.00005604,-0.00004273,-0.00036720,0.00026335,0.00032991,0.00
 020322,0.00008944,-0.00009246,-0.00020299,0.00000613,0.00001136,-0.000
 00719,-0.00001498,0.00001301,0.00000024,-0.00019518,-0.00002288,0.0001
 9746,0.00000724,-0.00001704,0.00000604,0.00000541,-0.00003436,0.000029
 44,0.00314581,-0.00417282,0.00212216,0.04385550,0.03075747,-0.02889549
 ,-0.04537394,-0.01575175,-0.02491878,-0.17894167,-0.04469188,-0.084887
 80,-0.00202064,-0.02887009,0.06457170,-0.00083474,0.00010783,-0.000462
 67,0.52525993,-0.00030825,0.00005324,0.00008290,0.00024869,0.00006901,
 0.00037704,-0.00052943,-0.00031051,-0.00054308,0.00013331,-0.00011530,
 -0.00066031,0.00035836,0.00021077,0.00014915,0.00007932,-0.00014275,-0
 .00027566,-0.00001442,0.00003002,-0.00001611,-0.00001183,-0.00003788,0
 .00000773,0.00010873,0.00004538,0.00025099,-0.00000747,-0.00000476,0.0
 0001019,-0.00000008,-0.00001043,0.00001526,-0.00465327,0.00299087,0.00
 305780,0.02173278,0.01938078,0.00231746,-0.01566709,-0.01200477,-0.011
 90442,-0.02735459,-0.08519235,0.02167364,-0.01660686,-0.01232237,0.032
 43645,0.00005834,-0.00047120,-0.00054131,0.22876552,0.33237941,-0.0000
 5256,0.00004140,0.00002462,-0.00009248,-0.00016955,0.00018347,-0.00041
 450,-0.00055049,-0.00028950,0.00047023,-0.00055583,-0.00041891,-0.0000
 4568,0.00027675,0.00024272,0.00005721,-0.00000034,-0.00008610,-0.00001
 755,0.00002937,-0.00000745,0.00004556,0.00005530,0.00001948,-0.0000941
 6,0.00025405,0.00034262,-0.00000092,-0.00002426,-0.00000133,0.00002920
 ,-0.00001316,0.00004999,0.00341398,0.00538120,0.00092087,0.00851744,0.
 02563839,-0.05414172,-0.02482086,-0.01129538,-0.01613152,-0.13939173,-
 0.01184592,-0.27399939,0.02811699,0.01049246,0.03020586,-0.00046805,-0
 .00043163,0.00028744,0.06790657,-0.15665875,0.69471143,-0.00041913,0.0
 0010300,0.00012026,0.00047350,0.00001587,0.00053380,-0.00021244,0.0002
 0704,-0.00120708,-0.00140812,0.00149070,-0.00074543,0.00009679,0.00021
 452,-0.00003490,-0.00004393,-0.00030522,-0.00027344,-0.00000684,0.0000
 5898,-0.00001860,-0.00000201,-0.00001729,0.00002199,-0.00061962,0.0004
 9366,-0.00074236,0.00000634,0.00001506,-0.00000072,0.00001147,-0.00003
 214,0.00001185,-0.00135998,0.00154436,-0.00110017,-0.00379208,-0.00409
 621,0.00057090,0.00260017,-0.00259843,0.00064650,-0.25178049,-0.140910
 39,-0.00064270,0.00029426,0.00062824,-0.00016418,-0.00010358,-0.000296
 56,-0.00022709,-0.00998155,-0.00934551,0.00181681,0.26569874,-0.000051
 07,-0.00010445,-0.00003291,0.00013980,0.00012880,-0.00016938,0.0002400
 2,0.00045984,0.00078095,0.00017437,0.00026958,0.00043503,0.00025499,0.
 00007416,-0.00016157,0.00002335,-0.00007034,-0.00006576,0.00001030,-0.
 00002023,-0.00001109,-0.00003024,-0.00003368,-0.00005055,0.00040305,-0
 .00107887,0.00016577,0.00000459,0.00001679,0.00001386,-0.00004124,-0.0
 0002527,-0.00002703,0.00115994,-0.00251810,-0.00133523,-0.01236043,-0.
 00475647,-0.00183014,-0.00247663,0.00351999,0.00407102,-0.14037501,-0.
 13123491,0.00699702,0.00061978,-0.00042280,0.00033814,-0.00083583,-0.0
 0009544,-0.00015378,-0.00047299,0.00265488,0.00082763,0.15309422,0.130
 10394,0.00023121,0.00000199,-0.00013597,-0.00029624,-0.00030575,-0.000
 18825,-0.00018273,0.00007253,-0.00049285,-0.00083386,0.00063295,0.0000
 1278,-0.00033115,-0.00003706,-0.00009306,0.00001143,0.00012973,0.00021
 221,0.00001518,0.00001904,0.00000609,0.00002068,0.00002154,0.00001397,
 -0.00019684,0.00011118,0.00000251,0.00006113,-0.00002709,-0.00001084,0
 .00002290,-0.00000768,0.00001354,0.00219990,-0.00058750,0.00116924,0.0
 2245486,0.01384984,0.00399182,-0.00013309,0.00370822,-0.00423864,-0.00
 074317,0.00605231,-0.05775340,-0.00002038,0.00013652,-0.00097043,0.001
 19724,0.00080291,0.00020197,-0.02302992,-0.01516186,0.00420608,0.00331
 107,-0.00921242,0.05720196,0.00003877,-0.00000638,0.00000430,-0.000053
 62,0.00011534,0.00002969,0.00004013,-0.00001924,0.00012644,-0.00024618
 ,0.00005589,0.00006259,-0.00008695,-0.00020553,-0.00013812,-0.00007469
 ,0.00002411,0.00009255,-0.00001215,-0.00001802,-0.00000115,0.00002037,
 0.00000029,0.00001320,0.00002242,-0.00003783,-0.00031913,-0.00003533,0
 .00000951,0.00000709,-0.00001943,0.00002386,-0.00002753,-0.00070761,-0
 .00097063,0.00083227,-0.02930860,-0.02006536,0.02195619,0.04322791,0.0
 2002704,0.00682039,-0.03229484,-0.00455038,-0.05874373,-0.12621865,-0.
 04796556,0.02337524,0.00025801,-0.00338963,-0.00389648,-0.24110969,-0.
 12342298,0.02416179,0.00186073,-0.00210605,-0.00353946,0.52623248,0.00
 006769,-0.00001481,-0.00002340,-0.00003530,0.00004897,-0.00007920,0.00
 022334,0.00003769,0.00021049,-0.00033084,0.00024159,0.00026771,-0.0000
 4791,-0.00017532,-0.00014828,-0.00005975,0.00001587,0.00009665,0.00000
 467,-0.00001249,0.00000217,-0.00000998,-0.00001295,-0.00000752,-0.0000
 7087,-0.00007142,-0.00038963,-0.00000528,0.00001206,-0.00000064,-0.000
 01191,0.00001703,-0.00002822,-0.00113208,-0.00154046,0.00078932,-0.021
 82137,-0.02464798,0.01666222,0.03388058,0.01829689,0.02464418,-0.01717
 955,0.01027378,-0.04425149,-0.06318757,-0.12628978,0.07442385,-0.00324
 312,0.00550096,0.00014969,-0.10717374,-0.14284466,0.03377278,-0.002272
 70,0.00559932,0.00166987,0.21648027,0.31521609,-0.00016915,0.00003023,
 0.00008802,0.00012225,-0.00001751,0.00024229,-0.00038198,0.00034749,-0
 .00019661,0.00001065,-0.00013555,-0.00035980,0.00009621,0.00013207,0.0
 0008390,0.00002075,-0.00006579,-0.00013739,-0.00002109,0.00001038,-0.0
 0001649,0.00004916,0.00004606,0.00002407,0.00000395,0.00003828,0.00009
 430,-0.00003251,0.00000174,0.00001070,-0.00000920,-0.00001397,0.000015
 52,0.00331121,0.00035776,-0.00124339,0.02151318,0.01502389,-0.01381383
 ,-0.03106114,0.00172179,-0.05512854,-0.01972818,-0.01969545,0.02699264
 ,0.06761300,0.10228670,-0.24036933,-0.00415717,0.00056465,-0.00140435,
 -0.01990541,0.00631224,-0.11431532,-0.00369989,0.00146089,-0.00334878,
 0.08376805,-0.11146249,0.62955883,0.00000030,-0.00002400,-0.00000612,-
 0.00008836,0.00001805,0.00005598,0.00000718,0.00005563,-0.00028051,0.0
 0000735,0.00001158,-0.00001160,-0.00002457,-0.00002413,-0.00000468,-0.
 00000924,0.00000597,0.00001055,-0.00001473,-0.00000116,-0.00000528,0.0
 0000962,0.00000870,0.00000126,-0.00000549,0.00000848,-0.00001862,-0.00
 001126,-0.00000273,0.00000593,-0.00000602,0.00000292,-0.00000148,-0.00
 056289,-0.00036789,0.00087516,0.00197023,-0.00242777,-0.00409303,-0.00
 978721,-0.00894469,0.00186027,0.00032915,0.00056642,-0.00017258,-0.259
 23920,-0.13864556,-0.00152397,-0.00045942,0.00219774,0.00060965,0.0025
 4716,-0.00243494,0.00076329,-0.00035071,0.00044240,0.00020909,-0.00347
 323,-0.00326355,-0.00204136,0.26939609,-0.00002385,0.00000841,-0.00000
 143,0.00000304,0.00002975,0.00001732,-0.00011949,-0.00011098,-0.000030
 20,0.00000570,-0.00005532,-0.00007026,0.00002086,0.00002453,0.00000224
 ,0.00000430,-0.00000770,-0.00002233,-0.00000345,-0.00000719,0.00000144
 ,0.00000646,0.00000368,-0.00000050,0.00003107,-0.00001552,0.00003200,-
 0.00000056,0.00000203,0.00000001,-0.00000149,-0.00000422,0.00000193,0.
 00017965,0.00010455,0.00028189,-0.00286890,0.00542229,0.00138502,-0.00
 033583,0.00301837,0.00101558,0.00055969,-0.00009644,-0.00008373,-0.138
 02627,-0.12540076,0.00570774,0.00199663,-0.00266132,-0.00099986,-0.002
 04737,0.00346523,0.00378298,0.00046242,-0.00077107,-0.00032964,-0.0117
 7477,-0.00417514,-0.00116978,0.15138323,0.12318037,-0.00001446,-0.0000
 3037,-0.00001098,-0.00011075,0.00004517,0.00005317,-0.00016266,0.00000
 075,-0.00040449,0.00001297,-0.00005287,-0.00006053,-0.00001104,-0.0000
 0842,0.00000381,-0.00000769,0.00000194,-0.00000576,-0.00001783,-0.0000
 0800,-0.00000311,0.00001054,0.00001134,-0.00000422,0.00001405,0.000011
 85,0.00000439,-0.00001135,0.00000146,0.00000339,-0.00000509,0.00000090
 ,-0.00000033,-0.00103020,-0.00061383,0.00107280,-0.00345287,0.00133546
 ,-0.00391580,-0.02293165,-0.01474435,0.00499452,-0.00001139,0.00011964
 ,-0.00103808,-0.00320123,0.00490734,-0.05792189,0.00105481,-0.00093431
 ,0.00066348,-0.00024117,0.00329359,-0.00421393,0.00014533,-0.00029349,
 0.00003496,0.02344176,0.01467479,0.00283678,0.00379792,-0.00804531,0.0
 5694932,-0.00001370,0.00000096,0.00000557,-0.00002548,0.00000720,0.000
 03593,-0.00005728,-0.00008620,-0.00006305,-0.00000486,-0.00003537,-0.0
 0004652,-0.00000322,-0.00000217,0.00000133,-0.00001637,-0.00000685,-0.
 00000391,-0.00000572,-0.00000026,0.00000049,0.00001441,0.00001262,0.00
 000591,0.00002990,0.00001519,-0.00001017,-0.00001928,0.00001141,-0.000
 00238,-0.00000182,0.00000118,0.00000020,0.00078334,0.00053342,-0.00013
 310,-0.00024263,-0.00327556,-0.00403780,-0.00065022,0.00006709,-0.0002
 2160,0.00889540,0.00947562,-0.01610046,-0.00264324,-0.00472256,-0.0023
 6199,-0.00019003,0.00048775,0.00016423,-0.07477082,-0.04691370,0.06208
 277,-0.00042724,0.00195708,0.00106940,-0.00409913,-0.01263965,0.023052
 19,-0.00004557,-0.00076760,0.00114304,0.07382118,0.00000723,-0.0000023
 5,-0.00000355,0.00000874,-0.00001106,-0.00001769,0.00003314,-0.0000169
 1,0.00003703,0.00003895,0.00000661,0.00006678,-0.00002278,-0.00001009,
 -0.00000144,0.00000175,0.00000641,0.00000365,-0.00000010,0.00000204,-0
 .00000348,-0.00000398,-0.00000389,-0.00000495,-0.00001221,0.00001024,0
 .00001961,0.00001198,-0.00000260,0.00000236,-0.00000012,0.00000023,-0.
 00000126,-0.00007094,0.00035908,-0.00012989,-0.00299500,0.00523844,0.0
 0050536,-0.00010481,-0.00035383,-0.00080290,0.00068589,0.00468582,-0.0
 0290673,-0.00503564,0.00271785,0.00026777,0.00046637,-0.00070943,-0.00
 017152,-0.04795635,-0.10937746,0.11838804,0.00209048,-0.00239041,-0.00
 102952,-0.00322844,-0.00433623,0.01421534,-0.00034866,0.00012687,0.000
 87926,0.05431946,0.10625203,-0.00002417,0.00000009,0.00001330,-0.00003
 450,0.00001592,0.00007178,-0.00010173,-0.00009881,-0.00008263,-0.00000
 122,-0.00004093,-0.00005823,-0.00002001,-0.00001703,-0.00000447,-0.000
 02303,-0.00000516,-0.00000741,-0.00001432,-0.00000115,-0.00000638,0.00
 002394,0.00002088,0.00000571,0.00003713,0.00001359,-0.00001045,-0.0000
 2071,0.00000714,0.00000335,-0.00000685,0.00000193,-0.00000085,0.001223
 38,0.00088240,0.00042689,-0.00491456,0.00043269,-0.00201719,-0.0006075
 6,-0.00062746,0.00011891,0.00897392,0.01261765,-0.01587410,-0.00129489
 ,0.00080434,0.00166323,0.00021202,-0.00022173,-0.00011056,0.06341542,0
 .11935827,-0.25762256,0.00069780,-0.00120323,0.00053539,-0.00220922,-0
 .00173388,0.00368245,-0.00020948,0.00000814,0.00025479,-0.06550828,-0.
 12889797,0.26924867,0.00049478,0.00162843,0.00085798,0.00057004,0.0003
 9779,0.00464316,-0.04306547,-0.00542571,0.05139697,-0.00314650,-0.0046
 8743,-0.00714788,-0.00373767,0.00124572,-0.00031993,-0.00070075,0.0008
 2420,0.00152883,-0.00014898,-0.00026740,-0.00012832,-0.00136767,-0.000
 63738,0.00032632,0.00012148,-0.00033520,0.00097356,-0.00103241,0.00015
 463,0.00000016,-0.00016055,-0.00017967,0.00011346,-0.24524650,-0.02261
 562,0.25393143,0.02552804,0.00029985,0.00150063,-0.00556196,-0.0040325
 7,-0.00206962,-0.00073467,-0.00119620,-0.00307451,0.00208402,0.0013701
 5,0.00167333,0.00149676,0.00120181,-0.00160737,-0.00055232,0.00071687,
 -0.00070544,-0.00004310,0.00027496,-0.00038551,0.00009727,0.00091765,-
 0.00186774,0.00021423,-0.00010548,0.00023189,-0.00017760,0.00014320,-0
 .00010171,0.27470999,0.00077780,-0.00002198,0.00069801,-0.00062565,-0.
 00139640,-0.00073644,-0.00542556,0.01929299,0.00684589,-0.00222312,0.0
 0099806,-0.00232033,-0.00025934,-0.00051888,0.00178775,-0.00008888,0.0
 0025362,0.00026147,0.00004922,-0.00004168,-0.00001512,0.00022680,0.000
 23732,0.00090908,0.00002007,0.00049967,-0.00001415,-0.00026247,-0.0002
 5485,0.00007922,-0.00009676,0.00015915,-0.00000009,-0.02433147,-0.0691
 4347,0.01997621,0.00217042,0.02004258,-0.00088099,-0.00150171,-0.00190
 876,-0.00019816,-0.00223123,0.00049644,-0.00097837,0.00108394,0.000063
 72,0.00017616,0.00114490,0.00053986,-0.00016685,0.00139382,-0.00029212
 ,-0.00114105,-0.00011663,0.00052699,0.00008549,0.00013522,0.00024324,-
 0.00018410,0.00003444,-0.00002239,0.00008001,-0.00007591,-0.00015121,-
 0.00019417,0.03022189,0.03022775,0.00243006,0.00062365,0.00083349,-0.0
 0560457,-0.00447039,-0.00769849,0.04164093,0.00383979,-0.00526225,-0.0
 0202518,0.00076505,0.00532156,0.00112621,-0.00000884,0.00056904,-0.000
 91650,0.00030102,0.00041524,0.00042205,0.00003244,0.00011618,0.0000842
 6,0.00143052,0.00258360,-0.00040497,0.00056690,-0.00029891,0.00031974,
 0.00012621,-0.00008398,-0.00006443,0.00011472,0.00018594,0.25589446,0.
 02029915,-0.54450663,0.01087059,0.00108905,-0.07542099,0.00673417,0.00
 292198,-0.00158620,-0.00834658,-0.00454841,0.00113743,-0.00028010,0.00
 087119,0.00024083,-0.00128057,-0.00131956,-0.00071676,-0.00163720,0.00
 186731,-0.00248669,0.00100788,-0.00063050,-0.00033563,0.00068565,0.000
 59674,-0.00060331,-0.00014808,-0.00024631,-0.00029225,-0.00057520,0.00
 002259,-0.00082139,-0.29983360,-0.02404453,0.62885717,-0.00002257,0.00
 001175,-0.00000868,0.00006812,-0.00000037,-0.00003451,0.00012465,-0.00
 008968,0.00006857,-0.00001110,-0.00000702,-0.00002456,0.00007417,0.000
 05940,0.00006710,0.00002310,-0.00002217,-0.00004547,0.00001589,0.00000
 814,0.00001112,-0.00002938,-0.00002736,-0.00000941,-0.00002493,0.00001
 268,0.00005017,0.00001550,-0.00000432,-0.00000910,0.00001667,-0.000000
 45,0.00000538,-0.00132454,0.00056986,0.00013257,-0.00182641,-0.0003083
 9,-0.00005165,0.00493839,-0.00310862,0.00386510,-0.00159146,-0.0070019
 7,0.00254278,0.00871490,0.00703805,-0.00816571,0.00052114,-0.00003522,
 0.00035985,-0.02626187,-0.00660557,-0.03312125,-0.00044898,-0.00009047
 ,-0.00117823,-0.13922636,-0.01873857,-0.09606613,-0.00069873,0.0013401
 7,0.00180303,-0.00021796,0.00223534,0.00039327,0.00067145,-0.00000258,
 0.00024013,0.55524880,0.00004399,-0.00001421,-0.00001320,-0.00000358,0
 .00001391,-0.00007236,0.00013826,0.00007728,0.00011491,-0.00003538,0.0
 0004764,0.00007663,-0.00001367,0.00000120,-0.00002135,0.00000138,0.000
 01176,0.00003186,0.00000547,-0.00000505,0.00000322,-0.00000889,-0.0000
 0246,-0.00000736,-0.00003744,-0.00002843,-0.00002775,0.00000754,-0.000
 00013,-0.00000237,0.00000002,0.00000025,-0.00000233,0.00032876,-0.0008
 6606,-0.00019449,-0.00073282,-0.00172387,0.00050369,-0.00343359,0.0038
 0737,0.00499137,-0.00628951,0.00308528,0.00194099,0.01107405,0.0052768
 2,0.01041795,0.00046608,0.00035398,0.00062521,-0.01063413,0.00128090,-
 0.01832445,-0.00053750,0.00029744,-0.00069932,-0.01885518,-0.06891890,
 -0.00624545,0.00188624,-0.00240813,-0.00052234,0.00168566,-0.00237391,
 -0.00128899,0.00016500,0.00019261,-0.00018542,0.07198603,0.10425774,0.
 00005293,-0.00000093,-0.00002753,0.00002800,-0.00002975,-0.00014393,0.
 00024002,-0.00004913,0.00018702,0.00001697,-0.00006808,0.00006132,0.00
 000402,0.00006290,0.00010072,0.00002635,0.00001171,0.00000414,0.000026
 56,0.00000764,0.00001808,-0.00003514,-0.00002069,-0.00000942,-0.000081
 20,0.00007909,0.00007779,0.00002766,-0.00000524,-0.00001707,0.00002718
 ,0.00000350,0.00001053,-0.00101663,-0.00029733,-0.00045826,0.00019928,
 0.00046173,-0.00200983,0.00526000,0.00582985,-0.00052834,0.00134125,0.
 00099155,0.00693936,-0.02004109,0.00287135,-0.04462200,-0.00078756,-0.
 00011309,-0.00070979,-0.02119711,-0.01081742,-0.00613307,0.00008951,0.
 00009822,0.00031152,-0.09605508,-0.00615851,-0.22123328,0.00011101,-0.
 00153980,0.00110158,0.00204151,-0.00018865,0.00042297,0.00052051,-0.00
 001672,0.00026913,0.67577133,0.08161148,1.12361133,-0.00001410,-0.0000
 0151,0.00001201,-0.00003246,0.00001430,0.00007087,-0.00013625,0.000026
 68,-0.00008592,0.00000644,0.00003244,-0.00002645,-0.00002209,-0.000033
 26,-0.00005343,-0.00001307,0.00000205,0.00000909,-0.00001646,-0.000007
 26,-0.00001237,0.00002237,0.00001609,0.00000608,0.00003372,-0.00003765
 ,-0.00003033,-0.00000934,0.00000096,0.00001072,-0.00001617,-0.00000224
 ,-0.00000403,0.00076093,-0.00007014,0.00033759,0.00047803,0.00010282,0
 .00020741,-0.00098519,0.00072929,-0.00150816,-0.00032310,0.00099137,-0
 .00092013,-0.00309318,-0.00409030,0.00399189,-0.00029457,-0.00001696,-
 0.00015595,0.00492309,0.00167407,0.00184336,-0.00004219,0.00004112,0.0
 0006651,0.00516837,-0.00035046,-0.02041967,0.00029532,0.00008184,-0.00
 044598,0.00006795,-0.00026350,0.00011533,-0.00031192,-0.00001723,-0.00
 033914,-0.39874848,-0.04720678,-0.54657027,0.39230235,-0.00001343,0.00
 000646,0.00000657,0.00000062,0.00000188,0.00002258,-0.00004136,-0.0000
 1153,-0.00002602,0.00000077,-0.00000953,-0.00003415,0.00000578,0.00000
 181,-0.00000050,-0.00000201,-0.00000191,-0.00000846,-0.00000176,-0.000
 00070,0.00000008,0.00000474,-0.00000034,0.00000578,0.00001403,-0.00000
 704,0.00000446,-0.00000583,-0.00000350,0.00000310,-0.00000084,-0.00000
 187,0.00000131,0.00005421,0.00016598,0.00006106,0.00021992,0.00036387,
 -0.00011462,0.00056766,-0.00056295,-0.00099066,0.00099997,-0.00047960,
 -0.00039208,-0.00240139,-0.00034968,0.00046833,-0.00009037,-0.00014886
 ,-0.00013458,-0.00006580,0.00056607,0.00207048,0.00011000,-0.00012971,
 0.00010373,-0.00025554,0.01753665,-0.00355940,-0.00013670,0.00035013,-
 0.00011021,-0.00004882,0.00033377,0.00016748,-0.00007948,-0.00002227,-
 0.00001433,-0.04721864,-0.04236303,-0.07272369,0.04838427,0.02476589,-
 0.00004909,0.00000318,0.00003023,-0.00003181,0.00003100,0.00013604,-0.
 00024486,0.00002848,-0.00015251,-0.00001485,0.00004315,-0.00008642,-0.
 00000458,-0.00005477,-0.00008317,-0.00002764,-0.00000954,-0.00000359,-
 0.00002541,-0.00000825,-0.00001727,0.00003572,0.00002425,0.00001188,0.
 00007245,-0.00006485,-0.00005860,-0.00002921,0.00000579,0.00001620,-0.
 00002594,-0.00000273,-0.00000858,0.00103841,0.00005563,0.00061002,0.00
 000436,-0.00017271,0.00078584,-0.00119607,-0.00074630,-0.00107614,-0.0
 0125332,-0.00052177,-0.00186217,-0.00115404,-0.00277353,0.00747272,-0.
 00004947,-0.00004725,-0.00006105,0.00699261,0.00536891,-0.00134712,-0.
 00011715,-0.00001145,-0.00034618,-0.02044731,-0.00367722,-0.01145908,0
 .00021666,0.00030286,-0.00010161,-0.00053812,-0.00024824,0.00016877,-0
 .00045662,-0.00000822,-0.00041614,-0.54659570,-0.07271014,-0.85722296,
 0.56390098,0.07519372,0.86507087\\0.00003128,-0.00000083,-0.00001376,-
 0.00003233,-0.00002635,-0.00001916,-0.00001326,0.00002689,0.00003912,0
 .00003301,-0.00001343,-0.00002645,-0.00003348,-0.00001699,-0.00001760,
 -0.00000342,0.00002116,0.00003040,-0.00000140,0.00000019,0.00000035,0.
 00000207,0.00000192,0.00000205,-0.00000158,-0.00000013,0.00000776,0.00
 000442,0.00000344,0.00000237,0.00000033,-0.00000306,-0.00000077,0.0000
 1186,0.00000735,0.00001418,0.00001935,0.00000657,-0.00002870,-0.000016
 90,-0.00000322,-0.00000213,-0.00000947,-0.00000168,0.00002151,-0.00000
 027,-0.00000229,0.00001175,0.00000408,0.00000202,0.00000081,-0.0000145
 8,-0.00000632,-0.00000494,0.00000172,0.00000062,-0.00000188,0.00001027
 ,0.00000336,-0.00001816,0.00000076,0.00000154,-0.00000415,-0.00000082,
 -0.00000041,0.00000045,0.00000636,-0.00000376,-0.00000206,-0.00000168,
 0.00000400,0.00000528,0.00000366,-0.00000062,0.00000373\\\@
 The archive entry for this job was punched.


 NEVER TEACH A PIG TO SING.
 IT WASTES YOUR TIME AND ANNOYS THE PIG.
     -- SEEN ON A GREETING CARD
 Job cpu time:       0 days  0 hours 19 minutes 13.0 seconds.
 Elapsed time:       0 days  0 hours 19 minutes 14.4 seconds.
 File lengths (MBytes):  RWF=    231 Int=      0 D2E=      0 Chk=      8 Scr=      1
 Normal termination of Gaussian 16 at Thu May  4 17:34:21 2023.
