 Entering Gaussian System, Link 0=g16
 Input=by_product_acid.gjf
 Output=by_product_acid.log
 Initial command:
 /public/home/xiaoyuy/gaussian/g16/l1.exe "/public/home/xiaoyuy/yxy/Gau-160849.inp" -scrdir="/public/home/xiaoyuy/yxy/"
 Entering Link 1 = /public/home/xiaoyuy/gaussian/g16/l1.exe PID=    160850.
  
 Copyright (c) 1988-2019, Gaussian, Inc.  All Rights Reserved.
  
 This is part of the Gaussian(R) 16 program.  It is based on
 the Gaussian(R) 09 system (copyright 2009, Gaussian, Inc.),
 the Gaussian(R) 03 system (copyright 2003, Gaussian, Inc.),
 the Gaussian(R) 98 system (copyright 1998, Gaussian, Inc.),
 the Gaussian(R) 94 system (copyright 1995, Gaussian, Inc.),
 the Gaussian 92(TM) system (copyright 1992, Gaussian, Inc.),
 the Gaussian 90(TM) system (copyright 1990, Gaussian, Inc.),
 the Gaussian 88(TM) system (copyright 1988, Gaussian, Inc.),
 the Gaussian 86(TM) system (copyright 1986, Carnegie Mellon
 University), and the Gaussian 82(TM) system (copyright 1983,
 Carnegie Mellon University). Gaussian is a federally registered
 trademark of Gaussian, Inc.
  
 This software contains proprietary and confidential information,
 including trade secrets, belonging to Gaussian, Inc.
  
 This software is provided under written license and may be
 used, copied, transmitted, or stored only in accord with that
 written license.
  
 The following legend is applicable only to US Government
 contracts under FAR:
  
                    RESTRICTED RIGHTS LEGEND
  
 Use, reproduction and disclosure by the US Government is
 subject to restrictions as set forth in subparagraphs (a)
 and (c) of the Commercial Computer Software - Restricted
 Rights clause in FAR 52.227-19.
  
 Gaussian, Inc.
 340 Quinnipiac St., Bldg. 40, Wallingford CT 06492
  
  
 ---------------------------------------------------------------
 Warning -- This program may not be used in any manner that
 competes with the business of Gaussian, Inc. or will provide
 assistance to any competitor of Gaussian, Inc.  The licensee
 of this program is prohibited from giving any competitor of
 Gaussian, Inc. access to this program.  By using this program,
 the user acknowledges that Gaussian, Inc. is engaged in the
 business of creating and licensing software in the field of
 computational chemistry and represents and warrants to the
 licensee that it is not a competitor of Gaussian, Inc. and that
 it will not use this program in any manner prohibited above.
 ---------------------------------------------------------------
  

 Cite this work as:
 Gaussian 16, Revision C.01,
 M. J. Frisch, G. W. Trucks, H. B. Schlegel, G. E. Scuseria, 
 M. A. Robb, J. R. Cheeseman, G. Scalmani, V. Barone, 
 G. A. Petersson, H. Nakatsuji, X. Li, M. Caricato, A. V. Marenich, 
 J. Bloino, B. G. Janesko, R. Gomperts, B. Mennucci, H. P. Hratchian, 
 J. V. Ortiz, A. F. Izmaylov, J. L. Sonnenberg, D. Williams-Young, 
 F. Ding, F. Lipparini, F. Egidi, J. Goings, B. Peng, A. Petrone, 
 T. Henderson, D. Ranasinghe, V. G. Zakrzewski, J. Gao, N. Rega, 
 G. Zheng, W. Liang, M. Hada, M. Ehara, K. Toyota, R. Fukuda, 
 J. Hasegawa, M. Ishida, T. Nakajima, Y. Honda, O. Kitao, H. Nakai, 
 T. Vreven, K. Throssell, J. A. Montgomery, Jr., J. E. Peralta, 
 F. Ogliaro, M. J. Bearpark, J. J. Heyd, E. N. Brothers, K. N. Kudin, 
 V. N. Staroverov, T. A. Keith, R. Kobayashi, J. Normand, 
 K. Raghavachari, A. P. Rendell, J. C. Burant, S. S. Iyengar, 
 J. Tomasi, M. Cossi, J. M. Millam, M. Klene, C. Adamo, R. Cammi, 
 J. W. Ochterski, R. L. Martin, K. Morokuma, O. Farkas, 
 J. B. Foresman, and D. J. Fox, Gaussian, Inc., Wallingford CT, 2019.
 
 ******************************************
 Gaussian 16:  ES64L-G16RevC.01  3-Jul-2019
                 4-May-2023 
 ******************************************
 %chk=by_prouct_acid.chk
 ------------------------------------------------------
 # opt freq b3lyp/6-31g(d,p) geom=connectivity em=gd3bj
 ------------------------------------------------------
 1/18=20,19=15,26=3,38=1,57=2/1,3;
 2/9=110,12=2,17=6,18=5,40=1/2;
 3/5=1,6=6,7=101,11=2,25=1,30=1,71=1,74=-5,124=41/1,2,3;
 4//1;
 5/5=2,38=5/2;
 6/7=2,8=2,9=2,10=2,28=1/1;
 7//1,2,3,16;
 1/18=20,19=15,26=3/3(2);
 2/9=110/2;
 99//99;
 2/9=110/2;
 3/5=1,6=6,7=101,11=2,25=1,30=1,71=1,74=-5,124=41/1,2,3;
 4/5=5,16=3,69=1/1;
 5/5=2,38=5/2;
 7//1,2,3,16;
 1/18=20,19=15,26=3/3(-5);
 2/9=110/2;
 6/7=2,8=2,9=2,10=2,19=2,28=1/1;
 99/9=1/99;
 -------------------
 Title Card Required
 -------------------
 Symbolic Z-matrix:
 Charge =  0 Multiplicity = 1
 C                    -3.40122   0.37678   0. 
 C                    -2.00606   0.37678   0. 
 C                    -1.30852   1.58453   0. 
 C                    -2.00618   2.79304  -0.0012 
 C                    -3.401     2.79296  -0.00168 
 C                    -4.0986    1.58476  -0.00068 
 H                    -3.95098  -0.57553   0.00045 
 H                    -1.45655  -0.57573   0.00132 
 H                    -1.45598   3.74519  -0.00126 
 H                    -3.95113   3.74525  -0.00263 
 H                    -5.19821   1.58494  -0.00086 
 C                     0.23148   1.58465   0.00089 
 O                     0.86561   1.58309  -1.08605 
 O                     0.94331   1.58652   1.24113 
 H                     1.88768   1.58581   1.0686 
 

 GradGradGradGradGradGradGradGradGradGradGradGradGradGradGradGradGradGrad
 Berny optimization.
 Initialization pass.
                           ----------------------------
                           !    Initial Parameters    !
                           ! (Angstroms and Degrees)  !
 --------------------------                            --------------------------
 ! Name  Definition              Value          Derivative Info.                !
 --------------------------------------------------------------------------------
 ! R1    R(1,2)                  1.3952         estimate D2E/DX2                !
 ! R2    R(1,6)                  1.3948         estimate D2E/DX2                !
 ! R3    R(1,7)                  1.0996         estimate D2E/DX2                !
 ! R4    R(2,3)                  1.3947         estimate D2E/DX2                !
 ! R5    R(2,8)                  1.0997         estimate D2E/DX2                !
 ! R6    R(3,4)                  1.3954         estimate D2E/DX2                !
 ! R7    R(3,12)                 1.54           estimate D2E/DX2                !
 ! R8    R(4,5)                  1.3948         estimate D2E/DX2                !
 ! R9    R(4,9)                  1.0997         estimate D2E/DX2                !
 ! R10   R(5,6)                  1.3951         estimate D2E/DX2                !
 ! R11   R(5,10)                 1.0998         estimate D2E/DX2                !
 ! R12   R(6,11)                 1.0996         estimate D2E/DX2                !
 ! R13   R(12,13)                1.2584         estimate D2E/DX2                !
 ! R14   R(12,14)                1.43           estimate D2E/DX2                !
 ! R15   R(14,15)                0.96           estimate D2E/DX2                !
 ! A1    A(2,1,6)              119.9985         estimate D2E/DX2                !
 ! A2    A(2,1,7)              119.9972         estimate D2E/DX2                !
 ! A3    A(6,1,7)              120.0043         estimate D2E/DX2                !
 ! A4    A(1,2,3)              120.0086         estimate D2E/DX2                !
 ! A5    A(1,2,8)              119.9808         estimate D2E/DX2                !
 ! A6    A(3,2,8)              120.0106         estimate D2E/DX2                !
 ! A7    A(2,3,4)              119.9942         estimate D2E/DX2                !
 ! A8    A(2,3,12)             120.0128         estimate D2E/DX2                !
 ! A9    A(4,3,12)             119.993          estimate D2E/DX2                !
 ! A10   A(3,4,5)              119.994          estimate D2E/DX2                !
 ! A11   A(3,4,9)              119.9811         estimate D2E/DX2                !
 ! A12   A(5,4,9)              120.0249         estimate D2E/DX2                !
 ! A13   A(4,5,6)              120.0047         estimate D2E/DX2                !
 ! A14   A(4,5,10)             120.0113         estimate D2E/DX2                !
 ! A15   A(6,5,10)             119.984          estimate D2E/DX2                !
 ! A16   A(1,6,5)              120.0            estimate D2E/DX2                !
 ! A17   A(1,6,11)             120.008          estimate D2E/DX2                !
 ! A18   A(5,6,11)             119.992          estimate D2E/DX2                !
 ! A19   A(3,12,13)            120.2269         estimate D2E/DX2                !
 ! A20   A(3,12,14)            119.8865         estimate D2E/DX2                !
 ! A21   A(13,12,14)           119.8865         estimate D2E/DX2                !
 ! A22   A(12,14,15)           109.5            estimate D2E/DX2                !
 ! D1    D(6,1,2,3)              0.0323         estimate D2E/DX2                !
 ! D2    D(6,1,2,8)            179.9532         estimate D2E/DX2                !
 ! D3    D(7,1,2,3)           -179.9729         estimate D2E/DX2                !
 ! D4    D(7,1,2,8)             -0.052          estimate D2E/DX2                !
 ! D5    D(2,1,6,5)              0.0149         estimate D2E/DX2                !
 ! D6    D(2,1,6,11)           179.9892         estimate D2E/DX2                !
 ! D7    D(7,1,6,5)           -179.9798         estimate D2E/DX2                !
 ! D8    D(7,1,6,11)            -0.0056         estimate D2E/DX2                !
 ! D9    D(1,2,3,4)             -0.0568         estimate D2E/DX2                !
 ! D10   D(1,2,3,12)           179.9619         estimate D2E/DX2                !
 ! D11   D(8,2,3,4)           -179.9777         estimate D2E/DX2                !
 ! D12   D(8,2,3,12)             0.041          estimate D2E/DX2                !
 ! D13   D(2,3,4,5)              0.0341         estimate D2E/DX2                !
 ! D14   D(2,3,4,9)           -179.9964         estimate D2E/DX2                !
 ! D15   D(12,3,4,5)          -179.9846         estimate D2E/DX2                !
 ! D16   D(12,3,4,9)            -0.0151         estimate D2E/DX2                !
 ! D17   D(2,3,12,13)           89.935          estimate D2E/DX2                !
 ! D18   D(2,3,12,14)          -90.065          estimate D2E/DX2                !
 ! D19   D(4,3,12,13)          -90.0463         estimate D2E/DX2                !
 ! D20   D(4,3,12,14)           89.9537         estimate D2E/DX2                !
 ! D21   D(3,4,5,6)              0.0131         estimate D2E/DX2                !
 ! D22   D(3,4,5,10)          -179.9995         estimate D2E/DX2                !
 ! D23   D(9,4,5,6)           -179.9563         estimate D2E/DX2                !
 ! D24   D(9,4,5,10)             0.0311         estimate D2E/DX2                !
 ! D25   D(4,5,6,1)             -0.0376         estimate D2E/DX2                !
 ! D26   D(4,5,6,11)           179.9881         estimate D2E/DX2                !
 ! D27   D(10,5,6,1)           179.975          estimate D2E/DX2                !
 ! D28   D(10,5,6,11)            0.0007         estimate D2E/DX2                !
 ! D29   D(3,12,14,15)         179.9673         estimate D2E/DX2                !
 ! D30   D(13,12,14,15)         -0.0327         estimate D2E/DX2                !
 --------------------------------------------------------------------------------
 Trust Radius=3.00D-01 FncErr=1.00D-07 GrdErr=1.00D-06 EigMax=2.50D+02 EigMin=1.00D-04
 Number of steps in this run=     77 maximum allowed number of steps=    100.
 GradGradGradGradGradGradGradGradGradGradGradGradGradGradGradGradGradGrad

                          Input orientation:                          
 ---------------------------------------------------------------------
 Center     Atomic      Atomic             Coordinates (Angstroms)
 Number     Number       Type             X           Y           Z
 ---------------------------------------------------------------------
      1          6           0       -3.401222    0.376782    0.000000
      2          6           0       -2.006062    0.376782    0.000000
      3          6           0       -1.308524    1.584533    0.000000
      4          6           0       -2.006178    2.793042   -0.001199
      5          6           0       -3.401003    2.792964   -0.001678
      6          6           0       -4.098604    1.584758   -0.000682
      7          1           0       -3.950981   -0.575535    0.000450
      8          1           0       -1.456554   -0.575731    0.001315
      9          1           0       -1.455978    3.745185   -0.001258
     10          1           0       -3.951125    3.745245   -0.002631
     11          1           0       -5.198208    1.584941   -0.000862
     12          6           0        0.231476    1.584645    0.000888
     13          8           0        0.865614    1.583095   -1.086051
     14          8           0        0.943306    1.586517    1.241127
     15          1           0        1.887675    1.585815    1.068596
 ---------------------------------------------------------------------
                    Distance matrix (angstroms):
                    1          2          3          4          5
     1  C    0.000000
     2  C    1.395160   0.000000
     3  C    2.416205   1.394712   0.000000
     4  C    2.790065   2.416260   1.395427   0.000000
     5  C    2.416183   2.789946   2.416356   1.394825   0.000000
     6  C    1.394829   2.416183   2.790080   2.416236   1.395138
     7  H    1.099610   2.165553   3.412986   3.889675   3.413102
     8  H    2.165414   1.099655   2.165330   3.413316   3.889601
     9  H    3.889745   3.413024   2.165678   1.099680   2.165606
    10  H    3.413055   3.889707   3.413506   2.165528   1.099761
    11  H    2.165365   3.413128   3.889684   3.412999   2.165471
    12  C    3.828241   2.542737   1.540000   2.543093   3.828178
    13  O    4.565150   3.298670   2.430306   3.299707   4.565487
    14  O    4.677476   3.420911   2.571214   3.420312   4.676869
    15  H    5.529566   4.214837   3.370102   4.214731   5.529269
                    6          7          8          9         10
     6  C    0.000000
     7  H    2.165331   0.000000
     8  H    3.412938   2.494427   0.000000
     9  H    3.413344   4.989355   4.320917   0.000000
    10  H    2.165516   4.320781   4.989362   2.495147   0.000000
    11  H    1.099604   2.494641   4.320704   4.320988   2.494420
    12  C    4.330080   4.707369   2.741654   2.741430   4.707691
    13  O    5.081485   5.388855   3.351919   3.352790   5.389775
    14  O    5.192587   5.492522   3.460026   3.458314   5.492040
    15  H    6.081028   6.316825   4.122528   4.121588   6.316823
                   11         12         13         14         15
    11  H    0.000000
    12  C    5.429684   0.000000
    13  O    6.160161   1.258400   0.000000
    14  O    6.265839   1.430000   2.328477   0.000000
    15  H    7.166135   1.970533   2.384769   0.960000   0.000000
 Stoichiometry    C7H6O2
 Framework group  C1[X(C7H6O2)]
 Deg. of freedom    39
 Full point group                 C1      NOp   1
 Largest Abelian subgroup         C1      NOp   1
 Largest concise Abelian subgroup C1      NOp   1
                         Standard orientation:                         
 ---------------------------------------------------------------------
 Center     Atomic      Atomic             Coordinates (Angstroms)
 Number     Number       Type             X           Y           Z
 ---------------------------------------------------------------------
      1          6           0        1.907665   -1.208007   -0.030346
      2          6           0        0.513344   -1.208022    0.018011
      3          6           0       -0.183789   -0.000279    0.042180
      4          6           0        0.513474    1.208238    0.019189
      5          6           0        1.907478    1.208175   -0.028678
      6          6           0        2.604639   -0.000024   -0.053844
      7          1           0        2.457089   -2.160319   -0.049844
      8          1           0       -0.035869   -2.160541    0.035750
      9          1           0       -0.036403    2.160375    0.038311
     10          1           0        2.457292    2.160462   -0.046800
     11          1           0        3.703588    0.000171   -0.091777
     12          6           0       -1.722894   -0.000183    0.094670
     13          8           0       -2.318977   -0.001733    1.202935
     14          8           0       -2.477284    0.001672   -1.120152
     15          1           0       -3.415106    0.000961   -0.914992
 ---------------------------------------------------------------------
 Rotational constants (GHZ):           3.7965136           1.0593439           0.9687192
 Standard basis: 6-31G(d,p) (6D, 7F)
 There are   165 symmetry adapted cartesian basis functions of A   symmetry.
 There are   165 symmetry adapted basis functions of A   symmetry.
   165 basis functions,   294 primitive gaussians,   165 cartesian basis functions
    32 alpha electrons       32 beta electrons
       nuclear repulsion energy       396.5288143102 Hartrees.
 NAtoms=   15 NActive=   15 NUniq=   15 SFac= 1.00D+00 NAtFMM=   60 NAOKFM=F Big=F
 Integral buffers will be    131072 words long.
 Raffenetti 2 integral format.
 Two-electron integral symmetry is turned on.
 Nuclear repulsion after empirical dispersion term =      396.5030314321 Hartrees.
 One-electron integrals computed using PRISM.
 NBasis=   165 RedAO= T EigKep=  4.72D-04  NBF=   165
 NBsUse=   165 1.00D-06 EigRej= -1.00D+00 NBFU=   165
 ExpMin= 1.61D-01 ExpMax= 5.48D+03 ExpMxC= 8.25D+02 IAcc=3 IRadAn=         5 AccDes= 0.00D+00
 Harris functional with IExCor=  402 and IRadAn=       5 diagonalized for initial guess.
 HarFok:  IExCor=  402 AccDes= 0.00D+00 IRadAn=         5 IDoV= 1 UseB2=F ITyADJ=14
 ICtDFT=  3500011 ScaDFX=  1.000000  1.000000  1.000000  1.000000
 FoFCou: FMM=F IPFlag=           0 FMFlag=      100000 FMFlg1=           0
         NFxFlg=           0 DoJE=T BraDBF=F KetDBF=T FulRan=T
         wScrn=  0.000000 ICntrl=       500 IOpCl=  0 I1Cent=   200000004 NGrid=           0
         NMat0=    1 NMatS0=      1 NMatT0=    0 NMatD0=    1 NMtDS0=    0 NMtDT0=    0
 Petite list used in FoFCou.
 Keep R1 ints in memory in canonical form, NReq=96071825.
 Requested convergence on RMS density matrix=1.00D-08 within 128 cycles.
 Requested convergence on MAX density matrix=1.00D-06.
 Requested convergence on             energy=1.00D-06.
 No special actions if energy rises.
 Integral accuracy reduced to 1.0D-05 until final iterations.
 Initial convergence to 1.0D-05 achieved.  Increase integral accuracy.
                                                                                                                                                                                                                                                                                                                                                                                                                                                                                                                                                                                                                                                                                                                                                                                                                                                                                                                                                                                                                                                                                                                                                                                                                                                                                                                                                                                                                                                                                                                                                                                                                                                                                                                                                                                                                                                                                                                                                                                                                                                                                                                                                                                                                                                                                                                                                                                                                                                                                                                                                                                                                                                                                                                                                                                                                                                                                                                                                                                                                                                                                                                                                                                                                                                                                                                                                                                                                                                                                                                                                                                                                                                                                                                                                                                                                                                                                                                                                                                                                                                                                                                                                                                                                                                                                                                                                                                                                                                                                                                                                                                                                                                                                                                                                                                                                                                                                                                                                                                                                                                                                                                                                                                                                                                                                                                                                                                                                                                                                                                                                                                                                                                                                                                                                                                                                                                                                                                                                                                                                                                                                                                                                                                                                                                                                                                                                                                                                                                                                                                                                                                                                                                                                                                                                                                                                                                                                                                                                                                                                                                                                                                                                                                                                                                                                                                                                                                                                                                                                                                                                                                                                                                                                                                                                                                                                                                                                                                                                                                                                                                                                                                                                                                                                                                                                                                                                                                                                                                                                                                                                                                                                                                                                                                                                                                                                                                                                                                                                                                                                                                                                                                                                                                                                                                                                                                                                                                                                                                                                                                                                                                                                                                                                                                                                                                                                                                                                                                                                                                                                                                                                                                                                                                                                                                                                                                                                                                                                                                                                                                                                                                                                                                                                                                                                                                                                                                                                                                                                                                                                                                                                                                                                                                                                                                                                                                                                                                                                                                                                                                                                                                                                                                                                                                                                                                                                                                                                                                                                                                                                                                                                                                                                                                                                                                                                                                                                                                                                                                                                                                                                                                                                                                                                                                                                                                                                                                                                                                                                                                                                                                                                                                                                                                                                                                                                                                                                                                                                                                                                                                                                                                                                                                                                                                                                                                                                                                                                                                                                                                                                                                                                                                                                                                                                                                                                                                                                                                                                                                                                                                                                                                                                                                                                                                                                                                                                                                                                                                                                                                                                                                                                                                                                                                                                                                                                                                                                                                                                                                                                                                                                                                                                                                                                                                                                                                                                                                                                                                                                                                                                                                                                                                                                                                                                                                                                                                                                                                                                                                                                                                                                                                                                                                                                                                                                                                                                                                                                                                                                                                                                                                                                                                                                                                                                                                                                                                                                                                                                                                                                                                                                                                                                                                                                                                                                                                                                                                                                                                                                                                                                                                                                                                                                                                                                                                                                                                                                                                                                                                                                                                                                                                                                                                                                                                                                                                                                                                                                                                                                                                                                                                                                                                                                                                                                                                                                                                                                                                                                                                                                                                                                                                                                                                                                                                                                                                                                                                                                                                                                                                                                                                                                                                                                                                                                                                                                                                                                                                                                                                                                                                                                                                                                                                                                                                                                                                                                                                                                                                                                                                                                                                                                                                                                                                                                                                                                                                                                                                                                                                                                                                                                                                                                                                                                                                                                                                                                                                                                                                                                                                                                                                                                                                                                                                                                                                                                                                                                                                                                                                                                                                                                                                                                                                                                                                                                                                                                                                                                                                                                                                                                                                                                                                                                                                                                                                                                                                                                                                                                                                                                                                                                                                                                                                                                                                                                                                                                                                                                                                                                                                                                                                                                                                                                                                                                                                                                                                                                                                                                                                                                                                                                                                                                                                                                                                                                                                                                                                                                                                                                                                                                                                                                                                                                                                                                                                                                                                                                                                                                                                                                                                                                                                                                                                                                                                                                                                                                                                                                          Initial convergence to 1.0D-05 achieved.  Increase integral accuracy.
 SCF Done:  E(RB3LYP) =  -420.848606176     A.U. after   12 cycles
            NFock= 12  Conv=0.83D-08     -V/T= 2.0093
 Calling FoFJK, ICntrl=      2127 FMM=F ISym2X=0 I1Cent= 0 IOpClX= 0 NMat=1 NMatS=1 NMatT=0.
 ***** Axes restored to original set *****
 -------------------------------------------------------------------
 Center     Atomic                   Forces (Hartrees/Bohr)
 Number     Number              X              Y              Z
 -------------------------------------------------------------------
      1        6          -0.000578171   -0.000228091    0.000039061
      2        6          -0.001541363   -0.000601581   -0.000384570
      3        6           0.000994442    0.000129461    0.005412422
      4        6          -0.001364507    0.000444792   -0.000400966
      5        6          -0.000738427    0.000184184    0.000048888
      6        6          -0.000657574    0.000074230   -0.000088073
      7        1           0.000007446    0.000220499    0.000046849
      8        1           0.000059772    0.000504919    0.000111134
      9        1           0.000034879   -0.000483718    0.000122819
     10        1           0.000021251   -0.000219474    0.000048191
     11        1           0.000393637   -0.000006050   -0.000061351
     12        6           0.003806705   -0.000005826   -0.003722614
     13        8           0.001348903   -0.000011683    0.001972789
     14        8          -0.007336378   -0.000015304   -0.005766284
     15        1           0.005549386    0.000013641    0.002621704
 -------------------------------------------------------------------
 Cartesian Forces:  Max     0.007336378 RMS     0.002089153

 GradGradGradGradGradGradGradGradGradGradGradGradGradGradGradGradGradGrad
 Berny optimization.
 Using GEDIIS/GDIIS optimizer.
 FormGI is forming the generalized inverse of G from B-inverse, IUseBI=4.
 Internal  Forces:  Max     0.006848355 RMS     0.001686518
 Search for a local minimum.
 Step number   2 out of a maximum of   77
 All quantities printed in internal units (Hartrees-Bohrs-Radians)
 Mixed Optimization -- RFO/linear search
 Update second derivatives using D2CorX and points    1    2
 DE= -1.33D-02 DEPred=-1.31D-02 R= 1.01D+00
 TightC=F SS=  1.41D+00  RLast= 2.62D-01 DXNew= 5.0454D-01 7.8552D-01
 Trust test= 1.01D+00 RLast= 2.62D-01 DXMaxT set to 5.05D-01
 ITU=  1  0
 Use linear search instead of GDIIS.
     Eigenvalues ---    0.00237   0.00583   0.01295   0.01576   0.02153
     Eigenvalues ---    0.02154   0.02154   0.02155   0.02155   0.02156
     Eigenvalues ---    0.02156   0.02163   0.15995   0.16000   0.16000
     Eigenvalues ---    0.16000   0.16000   0.17103   0.22000   0.22000
     Eigenvalues ---    0.23073   0.23778   0.24993   0.25066   0.29766
     Eigenvalues ---    0.33711   0.33719   0.33722   0.33725   0.33899
     Eigenvalues ---    0.40544   0.42142   0.42406   0.46416   0.46459
     Eigenvalues ---    0.46472   0.46525   0.55221   0.80313
 RFO step:  Lambda=-8.08410290D-04 EMin= 2.36824150D-03
 Quartic linear search produced a step of  0.02215.
 Iteration  1 RMS(Cart)=  0.01398579 RMS(Int)=  0.00041172
 Iteration  2 RMS(Cart)=  0.00041943 RMS(Int)=  0.00000831
 Iteration  3 RMS(Cart)=  0.00000023 RMS(Int)=  0.00000831
 Variable       Old X    -DE/DX   Delta X   Delta X   Delta X     New X
                                 (Linear)    (Quad)   (Total)
    R1        2.63353   0.00073  -0.00007   0.00157   0.00151   2.63504
    R2        2.63700  -0.00017   0.00003  -0.00048  -0.00046   2.63654
    R3        2.05176  -0.00020  -0.00058  -0.00076  -0.00134   2.05043
    R4        2.63773   0.00144   0.00005   0.00328   0.00333   2.64106
    R5        2.05177  -0.00041  -0.00058  -0.00140  -0.00198   2.04979
    R6        2.63821   0.00131   0.00003   0.00301   0.00304   2.64125
    R7        2.81710   0.00348  -0.00206   0.01194   0.00988   2.82697
    R8        2.63314   0.00082  -0.00006   0.00179   0.00173   2.63487
    R9        2.05175  -0.00040  -0.00058  -0.00138  -0.00196   2.04978
   R10        2.63735  -0.00026   0.00002  -0.00067  -0.00065   2.63670
   R11        2.05179  -0.00020  -0.00059  -0.00078  -0.00136   2.05043
   R12        2.05245  -0.00039  -0.00056  -0.00135  -0.00192   2.05054
   R13        2.29151  -0.00095  -0.00192  -0.00205  -0.00397   2.28754
   R14        2.56776  -0.00361  -0.00298  -0.00997  -0.01295   2.55481
   R15        1.83161   0.00487   0.00039   0.00911   0.00949   1.84111
    A1        2.09630   0.00021   0.00004   0.00058   0.00062   2.09692
    A2        2.08976   0.00000  -0.00010   0.00038   0.00028   2.09004
    A3        2.09713  -0.00021   0.00006  -0.00096  -0.00090   2.09622
    A4        2.08705   0.00087  -0.00017   0.00410   0.00394   2.09099
    A5        2.09994  -0.00012   0.00013  -0.00005   0.00007   2.10002
    A6        2.09617  -0.00075   0.00004  -0.00403  -0.00400   2.09217
    A7        2.10424  -0.00195   0.00022  -0.00770  -0.00749   2.09675
    A8        2.08946   0.00096  -0.00011   0.00368   0.00354   2.09301
    A9        2.08922   0.00099  -0.00011   0.00380   0.00366   2.09288
   A10        2.08696   0.00089  -0.00016   0.00418   0.00402   2.09098
   A11        2.09587  -0.00073   0.00004  -0.00386  -0.00383   2.09204
   A12        2.10033  -0.00016   0.00012  -0.00030  -0.00018   2.10015
   A13        2.09638   0.00020   0.00004   0.00051   0.00055   2.09693
   A14        2.08991  -0.00000  -0.00010   0.00034   0.00023   2.09015
   A15        2.09689  -0.00019   0.00006  -0.00085  -0.00078   2.09610
   A16        2.09542  -0.00022   0.00002  -0.00164  -0.00162   2.09379
   A17        2.09398   0.00010  -0.00001   0.00078   0.00077   2.09476
   A18        2.09379   0.00011  -0.00001   0.00086   0.00085   2.09464
   A19        2.15567   0.00585   0.00127   0.02409   0.02536   2.18103
   A20        1.99475  -0.00668  -0.00216  -0.02763  -0.02979   1.96496
   A21        2.13276   0.00083   0.00089   0.00354   0.00443   2.13719
   A22        1.80343   0.00685  -0.00239   0.04355   0.04116   1.84459
    D1       -0.00485   0.00004  -0.00012   0.00308   0.00296  -0.00188
    D2       -3.13909   0.00000   0.00007   0.00025   0.00033  -3.13876
    D3        3.13743   0.00003  -0.00010   0.00228   0.00219   3.13961
    D4        0.00318  -0.00001   0.00009  -0.00054  -0.00045   0.00273
    D5        0.00274  -0.00005   0.00006  -0.00216  -0.00210   0.00064
    D6       -3.13965  -0.00003   0.00005  -0.00176  -0.00171  -3.14136
    D7       -3.13953  -0.00004   0.00004  -0.00136  -0.00132  -3.14085
    D8        0.00126  -0.00002   0.00003  -0.00096  -0.00093   0.00033
    D9        0.00718  -0.00005   0.00018  -0.00422  -0.00402   0.00316
   D10       -3.10984   0.00015   0.00072   0.00609   0.00680  -3.10305
   D11        3.14144  -0.00000  -0.00001  -0.00139  -0.00138   3.14006
   D12        0.02442   0.00019   0.00053   0.00892   0.00943   0.03386
   D13       -0.00734   0.00005  -0.00018   0.00435   0.00416  -0.00318
   D14       -3.14124  -0.00000   0.00001   0.00112   0.00111  -3.14013
   D15        3.10968  -0.00015  -0.00071  -0.00595  -0.00666   3.10302
   D16       -0.02422  -0.00020  -0.00053  -0.00919  -0.00971  -0.03393
   D17        1.55745  -0.00013  -0.00027  -0.00808  -0.00837   1.54908
   D18       -1.58424  -0.00013  -0.00027  -0.00781  -0.00811  -1.59234
   D19       -1.55978   0.00011   0.00026   0.00230   0.00258  -1.55720
   D20        1.58172   0.00011   0.00026   0.00256   0.00284   1.58456
   D21        0.00518  -0.00005   0.00011  -0.00335  -0.00324   0.00193
   D22       -3.13720  -0.00004   0.00010  -0.00247  -0.00238  -3.13958
   D23        3.13906   0.00000  -0.00007  -0.00012  -0.00020   3.13886
   D24       -0.00332   0.00002  -0.00009   0.00076   0.00067  -0.00265
   D25       -0.00291   0.00005  -0.00005   0.00230   0.00224  -0.00067
   D26        3.13949   0.00004  -0.00004   0.00189   0.00185   3.14134
   D27        3.13947   0.00004  -0.00004   0.00142   0.00138   3.14085
   D28       -0.00131   0.00002  -0.00003   0.00101   0.00098  -0.00033
   D29        3.14139   0.00001   0.00001   0.00046   0.00047  -3.14133
   D30       -0.00029   0.00001   0.00001   0.00072   0.00072   0.00043
         Item               Value     Threshold  Converged?
 Maximum Force            0.006848     0.000450     NO 
 RMS     Force            0.001687     0.000300     NO 
 Maximum Displacement     0.076286     0.001800     NO 
 RMS     Displacement     0.014118     0.001200     NO 
 Predicted change in Energy=-4.153860D-04
 GradGradGradGradGradGradGradGradGradGradGradGradGradGradGradGradGradGrad

                          Input orientation:                          
 ---------------------------------------------------------------------
 Center     Atomic      Atomic             Coordinates (Angstroms)
 Number     Number       Type             X           Y           Z
 ---------------------------------------------------------------------
      1          6           0       -3.373362    0.376723    0.008857
      2          6           0       -1.978964    0.373286    0.009364
      3          6           0       -1.281309    1.584288    0.007416
      4          6           0       -1.978436    2.795713    0.008782
      5          6           0       -3.372744    2.792928    0.008246
      6          6           0       -4.071038    1.584957    0.008686
      7          1           0       -3.914104   -0.563974    0.008505
      8          1           0       -1.433649   -0.564373    0.006849
      9          1           0       -1.432556    3.733039    0.005887
     10          1           0       -3.913147    3.733817    0.007414
     11          1           0       -5.156136    1.585281    0.008507
     12          6           0        0.213844    1.584013   -0.042015
     13          8           0        0.874383    1.579628   -1.056422
     14          8           0        0.774011    1.589062    1.188413
     15          1           0        1.736839    1.588651    1.039526
 ---------------------------------------------------------------------
                    Distance matrix (angstroms):
                    1          2          3          4          5
     1  C    0.000000
     2  C    1.394402   0.000000
     3  C    2.415555   1.397588   0.000000
     4  C    2.792371   2.422427   1.397691   0.000000
     5  C    2.416205   2.792363   2.415556   1.394311   0.000000
     6  C    1.395199   2.417627   2.789729   2.417626   1.395281
     7  H    1.085040   2.150168   3.398035   3.877410   3.400274
     8  H    2.155957   1.084703   2.154055   3.403965   3.877056
     9  H    3.877060   3.403897   2.154068   1.084699   2.155955
    10  H    3.400214   3.877401   3.398095   2.150151   1.085039
    11  H    2.153809   3.400493   3.874827   3.400430   2.153810
    12  C    3.785260   2.505376   1.495970   2.505373   3.785184
    13  O    4.541491   3.276088   2.403909   3.279039   4.543534
    14  O    4.479043   3.232204   2.370468   3.228545   4.476345
    15  H    5.352122   4.042962   3.189747   4.040136   5.349922
                    6          7          8          9         10
     6  C    0.000000
     7  H    2.154654   0.000000
     8  H    3.402270   2.480455   0.000000
     9  H    3.402330   4.962097   4.297413   0.000000
    10  H    2.154654   4.297792   4.962092   2.480592   0.000000
    11  H    1.085098   2.482325   4.298595   4.298595   2.482183
    12  C    4.285183   4.653639   2.707801   2.707627   4.653618
    13  O    5.058821   5.353383   3.324801   3.329811   5.356559
    14  O    4.986609   5.292086   3.302596   3.296050   5.288118
    15  H    5.898651   6.134326   3.969122   3.963821   6.131014
                   11         12         13         14         15
    11  H    0.000000
    12  C    5.370218   0.000000
    13  O    6.123827   1.210517   0.000000
    14  O    6.046390   1.351949   2.247097   0.000000
    15  H    6.969657   1.867957   2.266475   0.974272   0.000000
 Stoichiometry    C7H6O2
 Framework group  C1[X(C7H6O2)]
 Deg. of freedom    39
 Full point group                 C1      NOp   1
 Largest Abelian subgroup         C1      NOp   1
 Largest concise Abelian subgroup C1      NOp   1
                         Standard orientation:                         
 ---------------------------------------------------------------------
 Center     Atomic      Atomic             Coordinates (Angstroms)
 Number     Number       Type             X           Y           Z
 ---------------------------------------------------------------------
      1          6           0        1.873799   -1.207901   -0.014803
      2          6           0        0.479667   -1.211349    0.012448
      3          6           0       -0.217765   -0.000361    0.031123
      4          6           0        0.479242    1.211070    0.018713
      5          6           0        1.873284    1.208296   -0.008522
      6          6           0        2.571385    0.000336   -0.025696
      7          1           0        2.414405   -2.148591   -0.027422
      8          1           0       -0.065525   -2.149017    0.023625
      9          1           0       -0.066437    2.148382    0.034672
     10          1           0        2.413632    2.149186   -0.016248
     11          1           0        3.656272    0.000669   -0.047122
     12          6           0       -1.711638   -0.000766    0.110316
     13          8           0       -2.351847   -0.007532    1.137661
     14          8           0       -2.296194    0.007160   -1.108699
     15          1           0       -3.255867    0.006392   -0.940671
 ---------------------------------------------------------------------
 Rotational constants (GHZ):           3.8797805           1.1112949           1.0063084
 Standard basis: 6-31G(d,p) (6D, 7F)
 There are   165 symmetry adapted cartesian basis functions of A   symmetry.
 There are   165 symmetry adapted basis functions of A   symmetry.
   165 basis functions,   294 primitive gaussians,   165 cartesian basis functions
    32 alpha electrons       32 beta electrons
       nuclear repulsion energy       403.1644069871 Hartrees.
 NAtoms=   15 NActive=   15 NUniq=   15 SFac= 1.00D+00 NAtFMM=   60 NAOKFM=F Big=F
 Integral buffers will be    131072 words long.
 Raffenetti 2 integral format.
 Two-electron integral symmetry is turned on.
 Nuclear repulsion after empirical dispersion term =      403.1382427641 Hartrees.
 One-electron integrals computed using PRISM.
 NBasis=   165 RedAO= T EigKep=  4.70D-04  NBF=   165
 NBsUse=   165 1.00D-06 EigRej= -1.00D+00 NBFU=   165
 Initial guess from the checkpoint file:  "by_prouct_acid.chk"
 B after Tr=     0.000000    0.000000    0.000000
         Rot=    0.999997   -0.001316    0.001992   -0.000007 Ang=  -0.27 deg.
 ExpMin= 1.61D-01 ExpMax= 5.48D+03 ExpMxC= 8.25D+02 IAcc=3 IRadAn=         5 AccDes= 0.00D+00
 Harris functional with IExCor=  402 and IRadAn=       5 diagonalized for initial guess.
 HarFok:  IExCor=  402 AccDes= 0.00D+00 IRadAn=         5 IDoV= 1 UseB2=F ITyADJ=14
 ICtDFT=  3500011 ScaDFX=  1.000000  1.000000  1.000000  1.000000
 FoFCou: FMM=F IPFlag=           0 FMFlag=      100000 FMFlg1=           0
         NFxFlg=           0 DoJE=T BraDBF=F KetDBF=T FulRan=T
         wScrn=  0.000000 ICntrl=       500 IOpCl=  0 I1Cent=   200000004 NGrid=           0
         NMat0=    1 NMatS0=      1 NMatT0=    0 NMatD0=    1 NMtDS0=    0 NMtDT0=    0
 Petite list used in FoFCou.
 Keep R1 ints in memory in canonical form, NReq=96071825.
 Requested convergence on RMS density matrix=1.00D-08 within 128 cycles.
 Requested convergence on MAX density matrix=1.00D-06.
 Requested convergence on             energy=1.00D-06.
 No special actions if energy rises.
 Integral accuracy reduced to 1.0D-05 until final iterations.
 Initial convergence to 1.0D-05 achieved.  Increase integral accuracy.
 SCF Done:  E(RB3LYP) =  -420.849057956     A.U. after   11 cycles
            NFock= 11  Conv=0.40D-08     -V/T= 2.0093
 Calling FoFJK, ICntrl=      2127 FMM=F ISym2X=0 I1Cent= 0 IOpClX= 0 NMat=1 NMatS=1 NMatT=0.
 ***** Axes restored to original set *****
 -------------------------------------------------------------------
 Center     Atomic                   Forces (Hartrees/Bohr)
 Number     Number              X              Y              Z
 -------------------------------------------------------------------
      1        6           0.000434474    0.000141830    0.000100896
      2        6          -0.000617411    0.000521018   -0.000092555
      3        6          -0.000800270    0.000060500    0.000761306
      4        6          -0.000548517   -0.000576278   -0.000037038
      5        6           0.000362538   -0.000173115    0.000088564
      6        6           0.000315487    0.000036542    0.000014746
      7        1          -0.000074671   -0.000286250    0.000011629
      8        1           0.000188758   -0.000359339   -0.000016015
      9        1           0.000177879    0.000369150   -0.000006693
     10        1          -0.000068319    0.000291842    0.000007839
     11        1          -0.000284687   -0.000004608   -0.000031694
     12        6           0.001411471   -0.000044169   -0.001495705
     13        8           0.000120578   -0.000022432   -0.001211408
     14        8           0.000078733    0.000045068    0.001514632
     15        1          -0.000696043    0.000000241    0.000391498
 -------------------------------------------------------------------
 Cartesian Forces:  Max     0.001514632 RMS     0.000521860

 GradGradGradGradGradGradGradGradGradGradGradGradGradGradGradGradGradGrad
 Berny optimization.
 Using GEDIIS/GDIIS optimizer.
 FormGI is forming the generalized inverse of G from B-inverse, IUseBI=4.
 Internal  Forces:  Max     0.002219553 RMS     0.000461180
 Search for a local minimum.
 Step number   3 out of a maximum of   77
 All quantities printed in internal units (Hartrees-Bohrs-Radians)
 Mixed Optimization -- En-DIIS/RFO-DIIS
 Update second derivatives using D2CorX and points    1    2    3
 DE= -4.52D-04 DEPred=-4.15D-04 R= 1.09D+00
 TightC=F SS=  1.41D+00  RLast= 6.57D-02 DXNew= 8.4853D-01 1.9721D-01
 Trust test= 1.09D+00 RLast= 6.57D-02 DXMaxT set to 5.05D-01
 ITU=  1  1  0
 Use linear search instead of GDIIS.
     Eigenvalues ---    0.00237   0.00576   0.01295   0.01590   0.02152
     Eigenvalues ---    0.02154   0.02155   0.02155   0.02155   0.02155
     Eigenvalues ---    0.02156   0.02170   0.15356   0.16000   0.16000
     Eigenvalues ---    0.16000   0.16006   0.16082   0.20335   0.22000
     Eigenvalues ---    0.22003   0.23710   0.24984   0.26108   0.29446
     Eigenvalues ---    0.33713   0.33719   0.33724   0.33729   0.34043
     Eigenvalues ---    0.42127   0.42371   0.43260   0.46415   0.46461
     Eigenvalues ---    0.46469   0.46755   0.56837   0.81157
 RFO step:  Lambda=-5.18165452D-05 EMin= 2.36630720D-03
 Quartic linear search produced a step of  0.10879.
 Iteration  1 RMS(Cart)=  0.00942713 RMS(Int)=  0.00007240
 Iteration  2 RMS(Cart)=  0.00010029 RMS(Int)=  0.00000154
 Iteration  3 RMS(Cart)=  0.00000001 RMS(Int)=  0.00000154
 Variable       Old X    -DE/DX   Delta X   Delta X   Delta X     New X
                                 (Linear)    (Quad)   (Total)
    R1        2.63504  -0.00036   0.00016  -0.00096  -0.00080   2.63424
    R2        2.63654   0.00007  -0.00005   0.00021   0.00016   2.63671
    R3        2.05043   0.00029  -0.00015   0.00083   0.00069   2.05112
    R4        2.64106  -0.00005   0.00036  -0.00031   0.00005   2.64111
    R5        2.04979   0.00041  -0.00022   0.00126   0.00104   2.05083
    R6        2.64125  -0.00009   0.00033  -0.00040  -0.00007   2.64119
    R7        2.82697   0.00094   0.00107   0.00249   0.00357   2.83054
    R8        2.63487  -0.00032   0.00019  -0.00087  -0.00068   2.63419
    R9        2.04978   0.00041  -0.00021   0.00127   0.00105   2.05084
   R10        2.63670   0.00003  -0.00007   0.00013   0.00006   2.63676
   R11        2.05043   0.00029  -0.00015   0.00084   0.00069   2.05112
   R12        2.05054   0.00028  -0.00021   0.00087   0.00066   2.05120
   R13        2.28754   0.00108  -0.00043   0.00115   0.00072   2.28826
   R14        2.55481   0.00148  -0.00141   0.00380   0.00239   2.55720
   R15        1.84111  -0.00075   0.00103  -0.00188  -0.00085   1.84026
    A1        2.09692  -0.00004   0.00007  -0.00022  -0.00015   2.09677
    A2        2.09004  -0.00006   0.00003  -0.00050  -0.00047   2.08957
    A3        2.09622   0.00010  -0.00010   0.00071   0.00061   2.09684
    A4        2.09099   0.00011   0.00043   0.00021   0.00064   2.09163
    A5        2.10002  -0.00007   0.00001  -0.00032  -0.00031   2.09971
    A6        2.09217  -0.00004  -0.00044   0.00012  -0.00032   2.09185
    A7        2.09675  -0.00010  -0.00081  -0.00003  -0.00085   2.09590
    A8        2.09301   0.00003   0.00039   0.00002   0.00040   2.09341
    A9        2.09288   0.00007   0.00040   0.00018   0.00058   2.09346
   A10        2.09098   0.00011   0.00044   0.00022   0.00066   2.09163
   A11        2.09204  -0.00002  -0.00042   0.00020  -0.00021   2.09183
   A12        2.10015  -0.00009  -0.00002  -0.00042  -0.00044   2.09972
   A13        2.09693  -0.00005   0.00006  -0.00023  -0.00017   2.09676
   A14        2.09015  -0.00006   0.00003  -0.00054  -0.00052   2.08963
   A15        2.09610   0.00011  -0.00009   0.00077   0.00069   2.09679
   A16        2.09379  -0.00002  -0.00018   0.00006  -0.00012   2.09367
   A17        2.09476   0.00001   0.00008  -0.00006   0.00002   2.09478
   A18        2.09464   0.00002   0.00009   0.00000   0.00010   2.09473
   A19        2.18103   0.00047   0.00276   0.00107   0.00383   2.18486
   A20        1.96496  -0.00222  -0.00324  -0.00878  -0.01202   1.95295
   A21        2.13719   0.00175   0.00048   0.00771   0.00819   2.14538
   A22        1.84459   0.00052   0.00448   0.00061   0.00509   1.84969
    D1       -0.00188   0.00003   0.00032   0.00087   0.00119  -0.00069
    D2       -3.13876  -0.00002   0.00004  -0.00101  -0.00098  -3.13974
    D3        3.13961   0.00002   0.00024   0.00076   0.00100   3.14061
    D4        0.00273  -0.00002  -0.00005  -0.00112  -0.00117   0.00156
    D5        0.00064  -0.00001  -0.00023  -0.00065  -0.00088  -0.00023
    D6       -3.14136  -0.00002  -0.00019  -0.00073  -0.00091   3.14091
    D7       -3.14085  -0.00001  -0.00014  -0.00054  -0.00068  -3.14154
    D8        0.00033  -0.00001  -0.00010  -0.00062  -0.00072  -0.00040
    D9        0.00316  -0.00004  -0.00044  -0.00088  -0.00132   0.00184
   D10       -3.10305  -0.00012   0.00074  -0.00665  -0.00591  -3.10895
   D11        3.14006   0.00001  -0.00015   0.00099   0.00084   3.14090
   D12        0.03386  -0.00007   0.00103  -0.00478  -0.00375   0.03011
   D13       -0.00318   0.00003   0.00045   0.00068   0.00113  -0.00205
   D14       -3.14013  -0.00001   0.00012  -0.00113  -0.00101  -3.14115
   D15        3.10302   0.00011  -0.00072   0.00644   0.00571   3.10874
   D16       -0.03393   0.00007  -0.00106   0.00463   0.00357  -0.03036
   D17        1.54908   0.00002  -0.00091  -0.00893  -0.00984   1.53924
   D18       -1.59234  -0.00000  -0.00088  -0.01239  -0.01327  -1.60561
   D19       -1.55720  -0.00006   0.00028  -0.01467  -0.01439  -1.57159
   D20        1.58456  -0.00008   0.00031  -0.01813  -0.01782   1.56674
   D21        0.00193  -0.00002  -0.00035  -0.00046  -0.00081   0.00113
   D22       -3.13958  -0.00002  -0.00026  -0.00056  -0.00082  -3.14040
   D23        3.13886   0.00002  -0.00002   0.00137   0.00134   3.14021
   D24       -0.00265   0.00002   0.00007   0.00126   0.00133  -0.00132
   D25       -0.00067   0.00001   0.00024   0.00044   0.00068   0.00002
   D26        3.14134   0.00001   0.00020   0.00052   0.00072  -3.14112
   D27        3.14085   0.00001   0.00015   0.00055   0.00069   3.14154
   D28       -0.00033   0.00001   0.00011   0.00063   0.00073   0.00040
   D29       -3.14133   0.00001   0.00005   0.00156   0.00162  -3.13971
   D30        0.00043  -0.00001   0.00008  -0.00180  -0.00172  -0.00129
         Item               Value     Threshold  Converged?
 Maximum Force            0.002220     0.000450     NO 
 RMS     Force            0.000461     0.000300     NO 
 Maximum Displacement     0.032949     0.001800     NO 
 RMS     Displacement     0.009448     0.001200     NO 
 Predicted change in Energy=-3.029263D-05
 GradGradGradGradGradGradGradGradGradGradGradGradGradGradGradGradGradGrad

                          Input orientation:                          
 ---------------------------------------------------------------------
 Center     Atomic      Atomic             Coordinates (Angstroms)
 Number     Number       Type             X           Y           Z
 ---------------------------------------------------------------------
      1          6           0       -3.373435    0.376488    0.008211
      2          6           0       -1.979476    0.372035    0.002031
      3          6           0       -1.280156    1.582107   -0.000251
      4          6           0       -1.976620    2.793858    0.005874
      5          6           0       -3.370559    2.792708    0.011783
      6          6           0       -4.070077    1.585408    0.012948
      7          1           0       -3.914609   -0.564380    0.009049
      8          1           0       -1.434880   -0.566668   -0.003399
      9          1           0       -1.429775    3.731268    0.003655
     10          1           0       -3.909545    3.734824    0.015412
     11          1           0       -5.155514    1.586714    0.017112
     12          6           0        0.216898    1.580370   -0.049242
     13          8           0        0.881848    1.565162   -1.061112
     14          8           0        0.762349    1.602146    1.188982
     15          1           0        1.727182    1.600998    1.056962
 ---------------------------------------------------------------------
                    Distance matrix (angstroms):
                    1          2          3          4          5
     1  C    0.000000
     2  C    1.393980   0.000000
     3  C    2.415658   1.397615   0.000000
     4  C    2.791912   2.421827   1.397655   0.000000
     5  C    2.416224   2.791928   2.415675   1.393952   0.000000
     6  C    1.395285   2.417231   2.789954   2.417222   1.395313
     7  H    1.085404   2.149805   3.398210   3.877315   3.400887
     8  H    2.155846   1.085255   2.154340   3.403924   3.877175
     9  H    3.877162   3.403912   2.154367   1.085257   2.155830
    10  H    3.400866   3.877331   3.398253   2.149815   1.085404
    11  H    2.154190   3.400425   3.875400   3.400396   2.154186
    12  C    3.787232   2.507342   1.497857   2.507411   3.787260
    13  O    4.545748   3.277346   2.408313   3.289223   4.554222
    14  O    4.472267   3.231042   2.363579   3.212767   4.459167
    15  H    5.349355   4.045064   3.187811   4.030614   5.338496
                    6          7          8          9         10
     6  C    0.000000
     7  H    2.155405   0.000000
     8  H    3.402347   2.479761   0.000000
     9  H    3.402352   4.962562   4.297945   0.000000
    10  H    2.155404   4.299212   4.962575   2.479800   0.000000
    11  H    1.085446   2.483367   4.298906   4.298887   2.483309
    12  C    4.287429   4.655395   2.709289   2.709371   4.655468
    13  O    5.067107   5.355948   3.321246   3.342057   5.368778
    14  O    4.973498   5.287723   3.309583   3.277738   5.268033
    15  H    5.890536   6.133252   3.977659   3.951441   6.116431
                   11         12         13         14         15
    11  H    0.000000
    12  C    5.372826   0.000000
    13  O    6.132925   1.210896   0.000000
    14  O    6.032796   1.353214   2.253568   0.000000
    15  H    6.960819   1.872183   2.280813   0.973824   0.000000
 Stoichiometry    C7H6O2
 Framework group  C1[X(C7H6O2)]
 Deg. of freedom    39
 Full point group                 C1      NOp   1
 Largest Abelian subgroup         C1      NOp   1
 Largest concise Abelian subgroup C1      NOp   1
                         Standard orientation:                         
 ---------------------------------------------------------------------
 Center     Atomic      Atomic             Coordinates (Angstroms)
 Number     Number       Type             X           Y           Z
 ---------------------------------------------------------------------
      1          6           0        1.874202   -1.206895   -0.025699
      2          6           0        0.480577   -1.211853    0.005384
      3          6           0       -0.218664   -0.002134    0.036490
      4          6           0        0.477504    1.209801    0.034215
      5          6           0        1.871113    1.209153    0.003328
      6          6           0        2.570573    0.002190   -0.026628
      7          1           0        2.415332   -2.147502   -0.048903
      8          1           0       -0.063776   -2.150709    0.007922
      9          1           0       -0.069272    2.146931    0.058854
     10          1           0        2.409889    2.151396    0.002737
     11          1           0        3.655761    0.003881   -0.050213
     12          6           0       -1.714601   -0.004983    0.112257
     13          8           0       -2.361318   -0.034019    1.135577
     14          8           0       -2.282145    0.033300   -1.115594
     15          1           0       -3.244458    0.030081   -0.966342
 ---------------------------------------------------------------------
 Rotational constants (GHZ):           3.8720716           1.1117244           1.0071171
 Standard basis: 6-31G(d,p) (6D, 7F)
 There are   165 symmetry adapted cartesian basis functions of A   symmetry.
 There are   165 symmetry adapted basis functions of A   symmetry.
   165 basis functions,   294 primitive gaussians,   165 cartesian basis functions
    32 alpha electrons       32 beta electrons
       nuclear repulsion energy       403.1011760130 Hartrees.
 NAtoms=   15 NActive=   15 NUniq=   15 SFac= 1.00D+00 NAtFMM=   60 NAOKFM=F Big=F
 Integral buffers will be    131072 words long.
 Raffenetti 2 integral format.
 Two-electron integral symmetry is turned on.
 Nuclear repulsion after empirical dispersion term =      403.0750120828 Hartrees.
 One-electron integrals computed using PRISM.
 NBasis=   165 RedAO= T EigKep=  4.70D-04  NBF=   165
 NBsUse=   165 1.00D-06 EigRej= -1.00D+00 NBFU=   165
 Initial guess from the checkpoint file:  "by_prouct_acid.chk"
 B after Tr=    -0.000000   -0.000000   -0.000000
         Rot=    0.999977   -0.006684    0.000914   -0.000193 Ang=  -0.77 deg.
 ExpMin= 1.61D-01 ExpMax= 5.48D+03 ExpMxC= 8.25D+02 IAcc=3 IRadAn=         5 AccDes= 0.00D+00
 Harris functional with IExCor=  402 and IRadAn=       5 diagonalized for initial guess.
 HarFok:  IExCor=  402 AccDes= 0.00D+00 IRadAn=         5 IDoV= 1 UseB2=F ITyADJ=14
 ICtDFT=  3500011 ScaDFX=  1.000000  1.000000  1.000000  1.000000
 FoFCou: FMM=F IPFlag=           0 FMFlag=      100000 FMFlg1=           0
         NFxFlg=           0 DoJE=T BraDBF=F KetDBF=T FulRan=T
         wScrn=  0.000000 ICntrl=       500 IOpCl=  0 I1Cent=   200000004 NGrid=           0
         NMat0=    1 NMatS0=      1 NMatT0=    0 NMatD0=    1 NMtDS0=    0 NMtDT0=    0
 Petite list used in FoFCou.
 Keep R1 ints in memory in canonical form, NReq=96071825.
 Requested convergence on RMS density matrix=1.00D-08 within 128 cycles.
 Requested convergence on MAX density matrix=1.00D-06.
 Requested convergence on             energy=1.00D-06.
 No special actions if energy rises.
 Integral accuracy reduced to 1.0D-05 until final iterations.
 Initial convergence to 1.0D-05 achieved.  Increase integral accuracy.
 SCF Done:  E(RB3LYP) =  -420.849090118     A.U. after   11 cycles
            NFock= 11  Conv=0.43D-08     -V/T= 2.0093
 Calling FoFJK, ICntrl=      2127 FMM=F ISym2X=0 I1Cent= 0 IOpClX= 0 NMat=1 NMatS=1 NMatT=0.
 ***** Axes restored to original set *****
 -------------------------------------------------------------------
 Center     Atomic                   Forces (Hartrees/Bohr)
 Number     Number              X              Y              Z
 -------------------------------------------------------------------
      1        6           0.000017585    0.000024259    0.000026003
      2        6           0.000069188    0.000149537   -0.000059941
      3        6          -0.000391537   -0.000135459   -0.000112802
      4        6           0.000113209   -0.000142259    0.000168526
      5        6           0.000001355   -0.000044437   -0.000015351
      6        6           0.000025119    0.000010984    0.000020110
      7        1          -0.000017561   -0.000031928    0.000001401
      8        1           0.000013327   -0.000052910   -0.000067120
      9        1           0.000004247    0.000059852   -0.000020880
     10        1          -0.000012006    0.000035133   -0.000016095
     11        1          -0.000050091   -0.000001649    0.000008541
     12        6          -0.000109357    0.000410221   -0.001085839
     13        8          -0.000163919   -0.000283784    0.000894945
     14        8           0.000763112   -0.000027271    0.000148739
     15        1          -0.000262672    0.000029710    0.000109763
 -------------------------------------------------------------------
 Cartesian Forces:  Max     0.001085839 RMS     0.000268880

 GradGradGradGradGradGradGradGradGradGradGradGradGradGradGradGradGradGrad
 Berny optimization.
 Using GEDIIS/GDIIS optimizer.
 FormGI is forming the generalized inverse of G from B-inverse, IUseBI=4.
 Internal  Forces:  Max     0.000834321 RMS     0.000155691
 Search for a local minimum.
 Step number   4 out of a maximum of   77
 All quantities printed in internal units (Hartrees-Bohrs-Radians)
 Mixed Optimization -- En-DIIS/RFO-DIIS
 Swapping is turned off.
 Update second derivatives using D2CorX and points    1    2    3    4
 DE= -3.22D-05 DEPred=-3.03D-05 R= 1.06D+00
 TightC=F SS=  1.41D+00  RLast= 3.46D-02 DXNew= 8.4853D-01 1.0379D-01
 Trust test= 1.06D+00 RLast= 3.46D-02 DXMaxT set to 5.05D-01
 ITU=  1  1  1  0
     Eigenvalues ---    0.00185   0.00591   0.01295   0.01573   0.02134
     Eigenvalues ---    0.02154   0.02154   0.02155   0.02155   0.02155
     Eigenvalues ---    0.02157   0.02167   0.15517   0.16000   0.16000
     Eigenvalues ---    0.16000   0.16005   0.16206   0.21036   0.22000
     Eigenvalues ---    0.22006   0.23720   0.24988   0.28527   0.30886
     Eigenvalues ---    0.33713   0.33719   0.33726   0.33734   0.33955
     Eigenvalues ---    0.41436   0.42125   0.42444   0.46431   0.46460
     Eigenvalues ---    0.46524   0.46800   0.56490   0.85702
 En-DIIS/RFO-DIIS/Sim-DIIS IScMMF=       -3 using points:     4    3
 RFO step:  Lambda=-4.76308497D-05.
 DidBck=F Rises=F RFO-DIIS coefs:    3.00000   -2.00000
 Iteration  1 RMS(Cart)=  0.02670402 RMS(Int)=  0.00071588
 Iteration  2 RMS(Cart)=  0.00077315 RMS(Int)=  0.00002878
 Iteration  3 RMS(Cart)=  0.00000069 RMS(Int)=  0.00002877
 Variable       Old X    -DE/DX   Delta X   Delta X   Delta X     New X
                                 (Linear)    (Quad)   (Total)
    R1        2.63424   0.00001  -0.00160   0.00111  -0.00049   2.63375
    R2        2.63671   0.00000   0.00032  -0.00021   0.00012   2.63682
    R3        2.05112   0.00004   0.00138  -0.00089   0.00048   2.05160
    R4        2.64111  -0.00011   0.00010  -0.00016  -0.00006   2.64105
    R5        2.05083   0.00005   0.00209  -0.00132   0.00076   2.05160
    R6        2.64119  -0.00011  -0.00013  -0.00004  -0.00017   2.64101
    R7        2.83054   0.00022   0.00713  -0.00347   0.00366   2.83420
    R8        2.63419   0.00002  -0.00136   0.00099  -0.00037   2.63382
    R9        2.05084   0.00005   0.00211  -0.00133   0.00077   2.05161
   R10        2.63676  -0.00001   0.00012  -0.00011   0.00001   2.63677
   R11        2.05112   0.00004   0.00138  -0.00090   0.00048   2.05160
   R12        2.05120   0.00005   0.00132  -0.00084   0.00048   2.05167
   R13        2.28826  -0.00083   0.00143  -0.00241  -0.00098   2.28728
   R14        2.55720   0.00044   0.00478  -0.00288   0.00191   2.55911
[...]
 ! D25   D(4,5,6,1)             -0.0051         -DE/DX =    0.0                 !
 ! D26   D(4,5,6,11)           180.0007         -DE/DX =    0.0                 !
 ! D27   D(10,5,6,1)           179.9998         -DE/DX =    0.0                 !
 ! D28   D(10,5,6,11)            0.0055         -DE/DX =    0.0                 !
 ! D29   D(3,12,14,15)         179.999          -DE/DX =    0.0                 !
 ! D30   D(13,12,14,15)         -0.0082         -DE/DX =    0.0                 !
 --------------------------------------------------------------------------------
 GradGradGradGradGradGradGradGradGradGradGradGradGradGradGradGradGradGrad


 ----------------------------------------------------------------------

 Electric dipole moment (input orientation):
 (Debye = 10**-18 statcoulomb cm , SI units = C m)
                  (au)            (Debye)         (10**-30 SI)
   Tot        0.753871D+00      0.191615D+01      0.639159D+01
   x         -0.521243D+00     -0.132487D+01     -0.441928D+01
   y          0.540154D+00      0.137294D+01      0.457962D+01
   z          0.697207D-01      0.177212D+00      0.591116D+00

 Dipole polarizability, Alpha (input orientation).
 (esu units = cm**3 , SI units = C**2 m**2 J**-1)
 Alpha(0;0):
               (au)            (10**-24 esu)      (10**-40 SI)
   iso        0.731799D+02      0.108441D+02      0.120657D+02
   aniso      0.704524D+02      0.104400D+02      0.116160D+02
   xx         0.106555D+03      0.157899D+02      0.175686D+02
   yx        -0.192460D+01     -0.285196D+00     -0.317324D+00
   yy         0.827940D+02      0.122688D+02      0.136509D+02
   zx         0.446021D+01      0.660934D+00      0.735388D+00
   zy         0.101829D+02      0.150895D+01      0.167893D+01
   zz         0.301904D+02      0.447376D+01      0.497773D+01

 ----------------------------------------------------------------------

 Dipole orientation:
     6         -3.59979152         -2.21107531          4.94942072
     6         -2.08304695         -1.18419905          3.06358997
     6          0.04117926          0.25474884          3.71257879
     6          0.63985031          0.66115229          6.25868566
     6         -0.88471087         -0.37086408          8.13984863
     6         -3.00144606         -1.80500791          7.48840887
     1         -5.24604970         -3.32613423          4.44620552
     1         -2.50234565         -1.46873969          1.07844605
     1          2.28652052          1.77704916          6.74335714
     1         -0.42340829         -0.05778862         10.11373094
     1         -4.18575471         -2.60666982          8.95980462
     6          1.59662115          1.30770114          1.62898673
     8          1.16876437          1.01819968         -0.60838135
     8          3.60592615          2.66809204          2.46204824
     1          4.46725288          3.25110607          0.94993441

 Electric dipole moment (dipole orientation):
 (Debye = 10**-18 statcoulomb cm , SI units = C m)
                  (au)            (Debye)         (10**-30 SI)
   Tot        0.753871D+00      0.191615D+01      0.639159D+01
   x          0.000000D+00      0.000000D+00      0.000000D+00
   y          0.000000D+00      0.000000D+00      0.000000D+00
   z          0.753871D+00      0.191615D+01      0.639159D+01

 Dipole polarizability, Alpha (dipole orientation).
 (esu units = cm**3 , SI units = C**2 m**2 J**-1)
 Alpha(0;0):
               (au)            (10**-24 esu)      (10**-40 SI)
   iso        0.731799D+02      0.108441D+02      0.120657D+02
   aniso      0.704524D+02      0.104400D+02      0.116160D+02
   xx         0.740344D+02      0.109708D+02      0.122066D+02
   yx         0.311754D+02      0.461972D+01      0.514013D+01
   yy         0.491158D+02      0.727821D+01      0.809810D+01
   zx        -0.920423D+01     -0.136393D+01     -0.151757D+01
   zy        -0.621612D+01     -0.921134D+00     -0.102490D+01
   zz         0.963896D+02      0.142835D+02      0.158925D+02

 ----------------------------------------------------------------------
 Unable to Open any file for archive entry.
 1\1\GINC-NODE660\Freq\RB3LYP\6-31G(d,p)\C7H6O2\XIAOYUY\04-May-2023\0\\
 #N Geom=AllCheck Guess=TCheck SCRF=Check GenChk RB3LYP/6-31G(d,p) Freq
 \\Title Card Required\\0,1\C,-3.4128431885,0.3925741054,-0.2365328865\
 C,-2.0250289957,0.3295546949,-0.1632220362\C,-1.2849888462,1.488999004
 ,0.1001706339\C,-1.9408750471,2.7120382084,0.2897303397\C,-3.330541144
 8,2.7699702427,0.2152799844\C,-4.0663022996,1.6127417881,-0.0473132838
 \H,-3.9862479845,-0.5060502242,-0.4407157762\H,-1.4917640863,-0.603563
 7528,-0.305903974\H,-1.3603616811,3.6039654334,0.4928387305\H,-3.84033
 73305,3.7169024078,0.3619601061\H,-5.1495001808,1.6615713401,-0.104665
 6037\C,0.1929573383,1.367597034,0.1680747925\O,0.8147697645,0.33540024
 32,0.0117986358\O,0.8125951112,2.5472214225,0.4282137264\H,1.762099551
 1,2.3441167322,0.4483015811\\Version=ES64L-G16RevC.01\State=1-A\HF=-42
 0.8617644\RMSD=2.313e-09\RMSF=1.414e-05\ZeroPoint=0.1159813\Thermal=0.
 1230798\ETot=-420.7386846\HTot=-420.7377404\GTot=-420.7777903\Dipole=-
 0.5212431,0.5401545,0.0697207\DipoleDeriv=-0.0865414,0.1889252,0.03732
 15,0.159967,0.0377358,0.0387328,0.031911,0.0405529,-0.1064467,0.082431
 1,-0.1355187,-0.0158289,0.0796047,0.0084025,0.0205452,0.0246412,0.0073
 267,-0.0719802,-0.5956491,0.0179108,-0.033373,0.0019258,-0.0595696,-0.
 0116553,-0.0363899,-0.0106671,-0.0012441,0.1193267,0.1214185,0.0351687
 ,-0.0773368,0.0051744,0.0116013,-0.0022712,0.023747,-0.0776246,-0.1377
 25,-0.1656127,-0.0324278,-0.1640546,0.0710363,0.0251459,-0.0321728,0.0
 251186,-0.1136349,0.1419262,-0.0058663,0.0125709,0.0058488,0.0340393,0
 .0219366,0.0147986,0.0211961,-0.0759201,0.0080428,-0.0679458,-0.019189
 5,-0.0768251,-0.0459174,-0.0345133,-0.0208771,-0.033996,0.1049322,0.08
 61,0.0563682,0.0090947,0.0357276,0.0141566,-0.0159244,0.0051908,-0.014
 658,0.10812,0.068313,-0.0534834,-0.012691,-0.0544764,0.006362,-0.02307
 85,-0.0128514,-0.0229867,0.1062881,0.0169689,0.064911,0.0063461,0.0757
 034,-0.0613557,-0.0279839,0.0084024,-0.0286647,0.1074305,-0.1048785,0.
 0080903,-0.0115556,0.0082966,0.0678936,-0.0070601,-0.0115428,-0.007072
 5,0.106142,2.0157941,0.0180815,0.1080904,0.1800059,1.4124935,0.2185509
 ,0.1385907,0.208558,0.3587864,-1.0511811,0.31076,0.0165107,0.2116899,-
 0.8618325,-0.0801887,-0.0021467,-0.0741265,-0.3811629,-0.8402568,-0.41
 60891,-0.1070552,-0.52753,-0.9070802,-0.1330133,-0.1280177,-0.1261084,
 -0.4046038,0.2773291,0.0580505,0.007018,0.1414533,0.2784614,-0.0030952
 ,0.0227349,-0.0082195,0.3409181\Polar=106.5553781,-1.924599,82.7940249
 ,4.4602051,10.1828741,30.1904155\Quadrupole=3.9127402,-0.9212895,-2.99
 14507,3.6764497,1.1284031,0.6493973\PG=C01 [X(C7H6O2)]\NImag=0\\0.6975
 9864,0.02963796,0.70372405,0.04033926,0.10943260,0.15433933,-0.3502729
 0,-0.02280145,-0.02199072,0.71236170,0.04203413,-0.12863542,-0.0099938
 4,-0.04586370,0.70188612,-0.00980290,-0.01397429,-0.06497419,0.0265626
 6,0.10297702,0.16010144,-0.03363427,-0.02260653,-0.00681678,-0.1711276
 5,-0.11093426,-0.02735341,0.64363191,-0.06815443,0.03558623,0.00097234
 ,-0.05577608,-0.26652327,-0.04127447,-0.00590819,0.69767343,-0.0153752
 9,0.00377203,0.00791215,-0.01698496,-0.04465731,-0.07463744,0.02966983
 ,0.10402742,0.16371001,-0.04947587,0.02913150,0.00287839,0.06213767,0.
 01724386,0.00654104,-0.16134759,0.05016827,0.00339956,0.70531115,0.030
 30491,-0.01948279,-0.00045727,-0.02636276,-0.05503559,-0.01353042,0.10
 502303,-0.28209572,-0.03467764,0.03491961,0.69985848,0.00309677,-0.000
 52908,-0.00706046,-0.00165492,-0.01085513,0.00621046,0.01370965,-0.038
 03958,-0.06954962,0.04144620,0.10790745,0.15965598,0.06634601,-0.02777
 347,-0.00160958,-0.05311639,-0.02742667,-0.00797626,-0.02702642,0.0741
 9693,0.01176065,-0.34551971,-0.02239129,-0.02164912,0.68950401,0.01839
 879,-0.05477593,-0.01058308,-0.02562137,-0.01467709,-0.00298683,0.0279
 6944,0.02658870,0.00510638,0.04344670,-0.12813001,-0.00985767,-0.03816
 376,0.71089708,0.00706788,-0.01341812,0.00545803,-0.00763723,-0.003097
 41,-0.00820399,0.00307076,0.00794083,0.01025098,-0.00927546,-0.0139007
 4,-0.06464669,0.02712527,0.10668196,0.15242245,-0.17492956,0.11845610,
 0.01529467,-0.02361484,0.03237406,0.00421887,-0.00137156,-0.00255895,-
 0.00006387,-0.03090966,-0.02704237,-0.00739967,-0.18765384,-0.12380067
 ,-0.03100643,0.74342793,0.05187548,-0.28775738,-0.03936176,0.07882937,
 0.02884163,0.00898499,-0.00229231,-0.06277805,-0.01040791,-0.07426812,
 0.03789384,0.00126632,-0.05710177,-0.27285306,-0.04321682,-0.00857989,
 0.65353808,0.00278128,-0.03527131,-0.06786932,0.01294922,0.00613173,0.
 00873221,-0.00001413,-0.01041975,-0.01012224,-0.01627702,0.00416397,0.
 00667418,-0.01847442,-0.04731414,-0.07150600,0.03569301,0.09677918,0.1
 5613562,-0.13783104,-0.12238729,-0.02923821,-0.01205315,-0.02815161,-0
 .00619025,-0.00532140,0.00209952,-0.00039072,-0.00072468,0.00092424,0.
 00015643,-0.00090706,0.00303665,0.00008384,0.01184395,0.01400873,0.003
 20221,0.14302954,-0.12235209,-0.25160505,-0.04797203,0.00273906,0.0052
 1566,0.00066701,0.00087493,0.00169082,-0.00103375,0.00093720,0.0001014
 0,0.00015986,0.00412483,-0.00282052,-0.00159764,-0.01712040,-0.0178737
 5,-0.00489668,0.13166611,0.26472811,-0.02923341,-0.04797775,-0.0472451
 1,-0.00038228,-0.00122869,0.00230813,-0.00062041,-0.00095738,0.0072553
 4,0.00015934,0.00015875,-0.00040348,0.00028808,-0.00166366,0.00672802,
 -0.00264978,-0.00298348,0.00185760,0.03195346,0.05300452,0.03775349,-0
 .00885771,0.02724710,0.00434523,-0.12639605,0.12124005,0.01743444,0.01
 275428,-0.01384012,-0.00205683,-0.00200546,-0.00314933,-0.00107499,-0.
 00074491,-0.00078592,-0.00016008,-0.00530441,-0.00099035,-0.00097655,0
 .00113537,-0.00033530,0.00026275,0.12973578,-0.00211693,0.00452761,0.0
 0000789,0.11907314,-0.27197402,-0.03646094,0.01381646,-0.01906214,-0.0
 0346375,-0.00405965,-0.00217163,-0.00176079,-0.00061321,0.00029953,0.0
 0012099,-0.00059760,0.00160719,-0.00115861,0.00024995,0.00053114,0.000
 89977,-0.12945412,0.28681483,-0.00117302,0.00180919,0.00406314,0.01702
 632,-0.03632779,-0.04492572,0.00314162,-0.00516057,0.00309865,-0.00124
 655,-0.00170515,0.00547230,-0.00012828,0.00011034,-0.00053126,-0.00090
 272,-0.00118144,0.00729667,0.00037295,0.00086398,-0.00398784,-0.018044
 63,0.04084688,0.03383289,-0.00063843,0.00081107,0.00014212,-0.00129242
 ,0.00340965,0.00018751,0.01202468,0.01235397,0.00288543,-0.14037123,-0
 .12706071,-0.03014686,-0.01082507,-0.02672028,-0.00591486,-0.00526682,
 0.00174252,-0.00045596,0.00007610,-0.00011020,0.00006003,0.00064149,0.
 00079342,0.00014627,0.14703006,0.00065032,0.00021373,0.00016904,0.0042
 8135,-0.00279988,-0.00140818,-0.01623983,-0.01815246,-0.00493786,-0.12
 467591,-0.25441532,-0.04830572,0.00329569,0.00613711,0.00064724,0.0011
 7243,0.00144524,-0.00106466,-0.00012953,-0.00002929,0.00021931,-0.0009
 6583,-0.00092685,-0.00036354,0.13528450,0.26707150,0.00011132,0.000179
 13,-0.00043280,0.00035117,-0.00146235,0.00584379,-0.00248485,-0.003185
 90,0.00207594,-0.02969722,-0.04844677,-0.04884963,-0.00027781,-0.00119
 627,0.00352757,-0.00056390,-0.00103119,0.00727073,0.00005645,0.0002208
 0,-0.00119458,-0.00018434,-0.00025540,0.00063228,0.03282269,0.05354624
 ,0.03822464,-0.00142832,-0.00294276,-0.00106970,-0.00081422,-0.0008513
 6,-0.00018021,-0.00553012,-0.00139493,-0.00105623,-0.01021471,0.029467
 80,0.00475933,-0.12137921,0.11507584,0.01639705,0.01189664,-0.01629447
 ,-0.00248889,0.00047637,-0.00087358,-0.00015372,0.00007234,0.00008917,
 0.00009192,0.00109806,-0.00038123,0.00024825,0.12533684,-0.00403969,-0
 .00222579,-0.00197974,-0.00089199,0.00024394,0.00008211,-0.00009994,0.
 00189668,-0.00104085,-0.00157083,0.00277265,-0.00003855,0.11507406,-0.
 27263006,-0.03737785,0.01492573,-0.01796676,-0.00294178,0.00077148,-0.
 00098045,-0.00019436,0.00007599,-0.00004156,0.00021345,0.00021738,0.00
 058050,0.00089564,-0.12393653,0.28744624,-0.00127554,-0.00191183,0.006
 55121,-0.00018695,0.00008480,-0.00047992,-0.00081277,-0.00112123,0.007
 14167,-0.00107644,0.00186885,0.00274914,0.01640001,-0.03738022,-0.0421
 7830,0.00337690,-0.00485712,0.00185709,0.00015523,-0.00029512,0.000259
 73,0.00008942,0.00021436,-0.00110685,0.00036066,0.00085817,-0.00393082
 ,-0.01717963,0.04157609,0.03250219,-0.01033932,-0.00227650,-0.00127993
 ,0.00070632,0.00301588,0.00016576,0.00084491,-0.00008771,0.00006162,0.
 00034792,-0.00316264,-0.00101646,-0.01209547,0.00370382,-0.00026315,-0
 .33809079,0.01274392,-0.01603247,0.00080990,0.00014278,0.00031349,-0.0
 0053014,-0.00022649,-0.00007237,-0.00063301,0.00026109,0.00001023,0.00
 083076,-0.00024134,0.00024481,0.35832746,0.02866803,0.00385384,0.00182
 026,0.00219433,-0.00463685,-0.00209702,-0.00009984,-0.00132702,-0.0001
 7530,-0.00233641,-0.00410443,-0.00227188,-0.02730280,0.00602186,-0.001
 20699,0.01277299,-0.06027388,-0.00339364,-0.00051027,0.00084550,0.0008
 5244,0.00131601,0.00012573,0.00011284,-0.00130057,0.00018672,-0.000044
 58,0.00041058,0.00081425,0.00090994,-0.01386268,0.05838089,0.00453616,
 -0.00007986,0.00379835,0.00001165,-0.00204719,0.00685334,0.00005913,-0
 .00017442,-0.00045636,-0.00086162,-0.00232275,0.00673586,-0.00608774,0
 .00069827,0.00327867,-0.01602968,-0.00339669,-0.03966179,0.00019076,0.
 00089291,-0.00367715,0.00021760,0.00001816,-0.00002821,-0.00028328,0.0
 0005135,-0.00000857,0.00036713,0.00087014,-0.00370852,0.01781364,0.005
 26239,0.02793000,0.00510332,-0.00408710,-0.00089884,-0.03063427,-0.016
 24080,-0.00500891,-0.20269841,0.00652767,-0.00651012,-0.01850180,0.017
 36030,0.00218244,0.00613983,0.00290251,0.00044003,0.00062917,-0.000104
 29,0.00006551,0.00070607,0.00054813,0.00010754,0.00077340,0.00274047,0
 .00080777,0.00158395,-0.00285554,-0.00018517,0.00090046,-0.00067122,-0
 .00011404,0.00019494,-0.00000820,0.00009595,0.72914353,-0.00651535,-0.
 00510649,-0.00271986,-0.02396657,0.01256866,0.00066673,-0.00486507,-0.
 09890115,-0.00446826,0.02935125,0.00648353,0.00318391,0.00413742,-0.00
 572944,-0.00230198,0.00050976,-0.00415656,-0.00060656,-0.00170736,0.00
 016240,-0.00019380,-0.00275690,-0.00341266,-0.00006079,0.00103414,-0.0
 0260465,0.00035294,0.00165313,0.00003528,-0.00002352,0.00000430,-0.000
 39919,0.00018668,-0.18146620,0.85493032,-0.00135649,-0.00257107,0.0066
 6754,-0.00645697,0.00114180,0.00101765,-0.00865134,-0.00376470,-0.0779
 4714,0.00443440,0.00244691,-0.00014197,0.00067126,-0.00237704,0.007467
 29,0.00018228,-0.00064463,-0.00087212,-0.00031655,-0.00005541,0.000605
 54,-0.00022657,0.00027561,-0.00395145,0.00054587,0.00011226,-0.0040863
 1,0.00032274,-0.00016620,0.00068812,0.00009820,0.00018573,-0.00135007,
 -0.00180072,0.11191153,0.22249416,0.00037628,0.00129199,0.00030247,-0.
 00025464,0.00377285,0.00068386,-0.03202580,0.04542328,0.00542370,-0.00
 500310,-0.00716164,-0.00183669,-0.00301354,0.00123081,0.00014157,-0.00
 035910,0.00143068,0.00024086,-0.00029265,-0.00022010,-0.00005959,-0.00
 162120,0.00052676,0.00002126,0.00010691,0.00041256,0.00004420,-0.00101
 138,0.00018997,-0.00000469,-0.00021489,0.00006095,-0.00001341,-0.28883
 769,0.26931818,0.03758662,0.29097616,0.00210910,0.00083019,0.00039919,
 -0.00618056,-0.00687628,-0.00170529,0.03021162,-0.00847499,-0.00331952
 ,-0.00060579,0.00324855,0.00001025,0.00125803,0.00089191,0.00054171,-0
 .00061621,0.00023555,-0.00001192,0.00034412,0.00006964,0.00003341,0.00
 092816,0.00279745,0.00064776,-0.00085888,0.00105394,0.00002015,0.00026
 009,-0.00006722,0.00006988,0.00000738,0.00029003,0.00001886,0.27061752
 ,-0.54331203,-0.07166993,-0.31441300,0.64845858,0.00045720,0.00034842,
 -0.00050854,-0.00119088,-0.00109627,-0.00010002,0.00255728,-0.00238615
 ,0.01869561,-0.00060390,-0.00039034,0.00288862,0.00014846,0.00053817,-
 0.00146412,-0.00014429,0.00011406,0.00010964,0.00004650,-0.00000124,0.
 00000730,0.00009619,0.00062388,-0.00022385,-0.00019574,0.00009998,0.00
 066549,0.00000884,0.00006558,-0.00034114,-0.00002352,0.00002232,0.0001
 9426,0.03783342,-0.07175240,-0.08583868,-0.04334999,0.09676313,0.04785
 774,-0.00213842,-0.00107861,-0.00031455,-0.00464109,0.00589960,0.00072
 315,-0.03055716,-0.03929834,-0.00983328,-0.00459707,-0.00149861,-0.000
 62328,0.00015813,-0.00085100,-0.00010059,-0.00040843,-0.00104253,-0.00
 022541,-0.00087075,-0.00006454,-0.00005363,0.00044371,-0.00007461,0.00
 000362,-0.00357187,-0.00017759,-0.00028200,-0.00024825,0.00021783,0.00
 002724,-0.00018140,-0.00000768,-0.00001984,-0.16753092,-0.08167071,-0.
 02190159,0.03710536,0.00887548,0.00219301,0.64234835,-0.00031853,0.001
 33558,0.00028932,0.00163150,0.00181763,0.00013348,-0.01336715,-0.00017
 948,-0.00256685,0.00163390,-0.00435059,-0.00089339,-0.00144896,0.00040
 256,0.00013683,-0.00008571,0.00021817,0.00002161,-0.00010637,-0.000058
 95,0.00001895,0.00160158,0.00098627,0.00025466,0.00058245,0.00156811,0
 .00024408,-0.00032349,0.00014886,0.00001293,-0.00006330,0.00019740,0.0
 0001161,-0.04213062,-0.22102477,-0.03266083,-0.00984355,-0.09951964,-0
 .02473333,-0.01647642,0.38797345,-0.00017249,0.00024271,-0.00027191,-0
 .00007884,0.00039615,0.00171090,-0.00495197,-0.00416057,0.00800387,-0.
 00003271,-0.00108604,0.00073218,-0.00021355,0.00017332,-0.00078020,-0.
 00004606,-0.00003741,0.00006577,-0.00006161,0.00002151,-0.00019410,0.0
 0031962,0.00015276,0.00019882,-0.00013863,0.00019767,0.00048781,-0.000
 07449,0.00004617,-0.00002115,-0.00003011,0.00001514,0.00011546,-0.0144
 5770,-0.03508794,-0.06878285,-0.00133201,-0.02358684,0.02408633,0.0340
 6393,0.06500884,0.05167015,0.00012159,-0.00062201,-0.00008382,-0.00098
 809,0.00047834,-0.00000535,0.00138459,-0.00375090,-0.00092949,0.000874
 16,-0.00017054,0.00005117,0.00013364,0.00017846,0.00003141,0.00011132,
 0.00004303,0.00001277,-0.00007658,0.00004318,0.00000814,-0.00009650,-0
 .00014675,-0.00004416,0.00003760,0.00006752,0.00003099,0.00001474,-0.0
 0002092,-0.00000423,0.00002283,0.00000556,0.00000355,-0.03697159,-0.00
 306001,-0.00313113,0.00406928,0.00806295,0.00216742,-0.46531020,0.0787
 1468,-0.01279339,0.49667322,-0.00018168,-0.00048236,-0.00002305,-0.001
 28427,0.00058477,-0.00007389,-0.00148237,-0.00594158,-0.00215683,0.000
 68444,-0.00057240,0.00002400,0.00013497,0.00037736,0.00004798,0.000190
 73,-0.00012025,-0.00001742,-0.00010838,0.00002334,0.00001198,-0.000131
 02,-0.00010088,-0.00005983,-0.00017846,0.00067160,0.00016348,0.0000417
 4,-0.00002655,-0.00000598,0.00004149,0.00002513,0.00001054,-0.05313261
 ,0.01046675,-0.00216402,0.00798027,0.00037433,0.00178418,0.12724774,-0
 .06951461,-0.00229546,-0.07982260,0.06423535,-0.00000073,-0.00005077,-
 0.00042741,-0.00033725,0.00003448,0.00054336,-0.00050260,-0.00229586,0
 .00456857,0.00021199,-0.00002881,-0.00046686,0.00002304,0.00005047,0.0
 0017754,0.00004066,-0.00002611,0.00003197,-0.00002048,0.00002128,-0.00
 007290,-0.00004128,-0.00006080,0.00016042,-0.00001525,0.00017871,-0.00
 022553,0.00000761,-0.00000985,0.00001756,0.00001028,0.00000835,-0.0000
 1525,-0.01255715,0.00091332,0.00403029,0.00215184,0.00178916,-0.006028
 66,-0.00365678,-0.00527791,-0.01702108,0.01468611,0.00475433,0.0147279
 7\\0.00003029,-0.00001934,0.00000647,-0.00003160,-0.00000382,-0.000009
 41,0.00000189,0.00000056,0.00000072,0.00001826,0.00000569,0.00000965,-
 0.00000563,-0.00000911,-0.00001163,-0.00000155,0.00001906,0.00000894,-
 0.00000749,0.00000277,-0.00000407,0.00000764,0.00000322,0.00000080,0.0
 0000302,0.00000183,-0.00000737,-0.00000340,-0.00000181,0.00000302,0.00
 000061,-0.00000336,-0.00000287,-0.00003011,-0.00004418,0.00001090,0.00
 000490,0.00002446,-0.00000569,-0.00000928,0.00002954,-0.00000263,0.000
 02248,-0.00000552,0.00000317\\\@
 The archive entry for this job was punched.


 A FOOL CAN ASK MORE QUESTIONS THAN
 A WISE MAN CAN ANSWER.
 Job cpu time:       0 days  0 hours  3 minutes 59.7 seconds.
 Elapsed time:       0 days  0 hours  4 minutes  0.6 seconds.
 File lengths (MBytes):  RWF=     51 Int=      0 D2E=      0 Chk=      3 Scr=      1
 Normal termination of Gaussian 16 at Thu May  4 16:47:23 2023.
