 Entering Gaussian System, Link 0=g16
 Input=by_product_phenol.gjf
 Output=by_product_phenol.log
 Initial command:
 /public/home/xiaoyuy/gaussian/g16/l1.exe "/public/home/xiaoyuy/yxy/Gau-246920.inp" -scrdir="/public/home/xiaoyuy/yxy/"
 Entering Link 1 = /public/home/xiaoyuy/gaussian/g16/l1.exe PID=    246922.
  
 Copyright (c) 1988-2019, Gaussian, Inc.  All Rights Reserved.
  
 This is part of the Gaussian(R) 16 program.  It is based on
 the Gaussian(R) 09 system (copyright 2009, Gaussian, Inc.),
 the Gaussian(R) 03 system (copyright 2003, Gaussian, Inc.),
 the Gaussian(R) 98 system (copyright 1998, Gaussian, Inc.),
 the Gaussian(R) 94 system (copyright 1995, Gaussian, Inc.),
 the Gaussian 92(TM) system (copyright 1992, Gaussian, Inc.),
 the Gaussian 90(TM) system (copyright 1990, Gaussian, Inc.),
 the Gaussian 88(TM) system (copyright 1988, Gaussian, Inc.),
 the Gaussian 86(TM) system (copyright 1986, Carnegie Mellon
 University), and the Gaussian 82(TM) system (copyright 1983,
 Carnegie Mellon University). Gaussian is a federally registered
 trademark of Gaussian, Inc.
  
 This software contains proprietary and confidential information,
 including trade secrets, belonging to Gaussian, Inc.
  
 This software is provided under written license and may be
 used, copied, transmitted, or stored only in accord with that
 written license.
  
 The following legend is applicable only to US Government
 contracts under FAR:
  
                    RESTRICTED RIGHTS LEGEND
  
 Use, reproduction and disclosure by the US Government is
 subject to restrictions as set forth in subparagraphs (a)
 and (c) of the Commercial Computer Software - Restricted
 Rights clause in FAR 52.227-19.
  
 Gaussian, Inc.
 340 Quinnipiac St., Bldg. 40, Wallingford CT 06492
  
  
 ---------------------------------------------------------------
 Warning -- This program may not be used in any manner that
 competes with the business of Gaussian, Inc. or will provide
 assistance to any competitor of Gaussian, Inc.  The licensee
 of this program is prohibited from giving any competitor of
 Gaussian, Inc. access to this program.  By using this program,
 the user acknowledges that Gaussian, Inc. is engaged in the
 business of creating and licensing software in the field of
 computational chemistry and represents and warrants to the
 licensee that it is not a competitor of Gaussian, Inc. and that
 it will not use this program in any manner prohibited above.
 ---------------------------------------------------------------
  

 Cite this work as:
 Gaussian 16, Revision C.01,
 M. J. Frisch, G. W. Trucks, H. B. Schlegel, G. E. Scuseria, 
 M. A. Robb, J. R. Cheeseman, G. Scalmani, V. Barone, 
 G. A. Petersson, H. Nakatsuji, X. Li, M. Caricato, A. V. Marenich, 
 J. Bloino, B. G. Janesko, R. Gomperts, B. Mennucci, H. P. Hratchian, 
 J. V. Ortiz, A. F. Izmaylov, J. L. Sonnenberg, D. Williams-Young, 
 F. Ding, F. Lipparini, F. Egidi, J. Goings, B. Peng, A. Petrone, 
 T. Henderson, D. Ranasinghe, V. G. Zakrzewski, J. Gao, N. Rega, 
 G. Zheng, W. Liang, M. Hada, M. Ehara, K. Toyota, R. Fukuda, 
 J. Hasegawa, M. Ishida, T. Nakajima, Y. Honda, O. Kitao, H. Nakai, 
 T. Vreven, K. Throssell, J. A. Montgomery, Jr., J. E. Peralta, 
 F. Ogliaro, M. J. Bearpark, J. J. Heyd, E. N. Brothers, K. N. Kudin, 
 V. N. Staroverov, T. A. Keith, R. Kobayashi, J. Normand, 
 K. Raghavachari, A. P. Rendell, J. C. Burant, S. S. Iyengar, 
 J. Tomasi, M. Cossi, J. M. Millam, M. Klene, C. Adamo, R. Cammi, 
 J. W. Ochterski, R. L. Martin, K. Morokuma, O. Farkas, 
 J. B. Foresman, and D. J. Fox, Gaussian, Inc., Wallingford CT, 2019.
 
 ******************************************
 Gaussian 16:  ES64L-G16RevC.01  3-Jul-2019
                 4-May-2023 
 ******************************************
 %chk=by_product_phenol.chk
 ------------------------------------
 # opt freq b3lyp/6-31g(d,p) em=gd3bj
 ------------------------------------
 1/18=20,19=15,26=3,38=1/1,3;
 2/9=110,12=2,17=6,18=5,40=1/2;
 3/5=1,6=6,7=101,11=2,25=1,30=1,71=1,74=-5,124=41/1,2,3;
 4//1;
 5/5=2,38=5/2;
 6/7=2,8=2,9=2,10=2,28=1/1;
 7//1,2,3,16;
 1/18=20,19=15,26=3/3(2);
 2/9=110/2;
 99//99;
 2/9=110/2;
 3/5=1,6=6,7=101,11=2,25=1,30=1,71=1,74=-5,124=41/1,2,3;
 4/5=5,16=3,69=1/1;
 5/5=2,38=5/2;
 7//1,2,3,16;
 1/18=20,19=15,26=3/3(-5);
 2/9=110/2;
 6/7=2,8=2,9=2,10=2,19=2,28=1/1;
 99/9=1/99;
 -------------------
 Title Card Required
 -------------------
 Symbolic Z-matrix:
 Charge =  0 Multiplicity = 1
 C                    -1.88417  0.        0. 
 C                    -1.18424  -1.218     0.00011 
 C                     0.20548  -1.20604   0.00011 
 C                     0.92627   0.00001   0.00001 
 C                     0.20547   1.20605  -0.0001 
 C                    -1.18425   1.218    -0.00011 
 H                    -1.73286  -2.15355   0.0002 
 H                     0.74554  -2.14712   0.00019 
 H                     0.74552   2.14713  -0.00018 
 H                    -1.73288   2.15355  -0.00021 
 C                    -3.31634  -0.00001  0. 
 N                    -4.47955   0.       0. 
 O                     2.35627   0.       0. 
 H                     2.67672   0.00012   0.90494 
 

 GradGradGradGradGradGradGradGradGradGradGradGradGradGradGradGradGradGrad
 Berny optimization.
 Initialization pass.
                           ----------------------------
                           !    Initial Parameters    !
                           ! (Angstroms and Degrees)  !
 --------------------------                            --------------------------
 ! Name  Definition              Value          Derivative Info.                !
 --------------------------------------------------------------------------------
 ! R1    R(1,2)                  1.4048         estimate D2E/DX2                !
 ! R2    R(1,6)                  1.4048         estimate D2E/DX2                !
 ! R3    R(1,11)                 1.4322         estimate D2E/DX2                !
 ! R4    R(2,3)                  1.3898         estimate D2E/DX2                !
 ! R5    R(2,7)                  1.0845         estimate D2E/DX2                !
 ! R6    R(3,4)                  1.405          estimate D2E/DX2                !
 ! R7    R(3,8)                  1.085          estimate D2E/DX2                !
 ! R8    R(4,5)                  1.405          estimate D2E/DX2                !
 ! R9    R(4,13)                 1.43           estimate D2E/DX2                !
 ! R10   R(5,6)                  1.3898         estimate D2E/DX2                !
 ! R11   R(5,9)                  1.085          estimate D2E/DX2                !
 ! R12   R(6,10)                 1.0845         estimate D2E/DX2                !
 ! R13   R(11,12)                1.1632         estimate D2E/DX2                !
 ! R14   R(13,14)                0.96           estimate D2E/DX2                !
 ! A1    A(2,1,6)              120.232          estimate D2E/DX2                !
 ! A2    A(2,1,11)             119.8839         estimate D2E/DX2                !
 ! A3    A(6,1,11)             119.8841         estimate D2E/DX2                !
 ! A4    A(1,2,3)              119.3912         estimate D2E/DX2                !
 ! A5    A(1,2,7)              119.728          estimate D2E/DX2                !
 ! A6    A(3,2,7)              120.8808         estimate D2E/DX2                !
 ! A7    A(2,3,4)              121.3573         estimate D2E/DX2                !
 ! A8    A(2,3,8)              119.3571         estimate D2E/DX2                !
 ! A9    A(4,3,8)              119.2856         estimate D2E/DX2                !
 ! A10   A(3,4,5)              118.2709         estimate D2E/DX2                !
 ! A11   A(3,4,13)             120.864          estimate D2E/DX2                !
 ! A12   A(5,4,13)             120.8651         estimate D2E/DX2                !
 ! A13   A(4,5,6)              121.3574         estimate D2E/DX2                !
 ! A14   A(4,5,9)              119.2855         estimate D2E/DX2                !
 ! A15   A(6,5,9)              119.3571         estimate D2E/DX2                !
 ! A16   A(1,6,5)              119.3912         estimate D2E/DX2                !
 ! A17   A(1,6,10)             119.728          estimate D2E/DX2                !
 ! A18   A(5,6,10)             120.8808         estimate D2E/DX2                !
 ! A19   A(4,13,14)            109.4995         estimate D2E/DX2                !
 ! A20   L(1,11,12,10,-1)      179.999          estimate D2E/DX2                !
 ! A21   L(1,11,12,10,-2)      180.0003         estimate D2E/DX2                !
 ! D1    D(6,1,2,3)             -0.0005         estimate D2E/DX2                !
 ! D2    D(6,1,2,7)            179.9999         estimate D2E/DX2                !
 ! D3    D(11,1,2,3)           179.9996         estimate D2E/DX2                !
 ! D4    D(11,1,2,7)             0.0            estimate D2E/DX2                !
 ! D5    D(2,1,6,5)             -0.0003         estimate D2E/DX2                !
 ! D6    D(2,1,6,10)           179.9997         estimate D2E/DX2                !
 ! D7    D(11,1,6,5)           179.9995         estimate D2E/DX2                !
 ! D8    D(11,1,6,10)           -0.0005         estimate D2E/DX2                !
 ! D9    D(1,2,3,4)              0.0009         estimate D2E/DX2                !
 ! D10   D(1,2,3,8)           -179.9998         estimate D2E/DX2                !
 ! D11   D(7,2,3,4)           -179.9995         estimate D2E/DX2                !
 ! D12   D(7,2,3,8)             -0.0002         estimate D2E/DX2                !
 ! D13   D(2,3,4,5)             -0.0004         estimate D2E/DX2                !
 ! D14   D(2,3,4,13)           180.0            estimate D2E/DX2                !
 ! D15   D(8,3,4,5)           -179.9998         estimate D2E/DX2                !
 ! D16   D(8,3,4,13)             0.0006         estimate D2E/DX2                !
 ! D17   D(3,4,5,6)             -0.0004         estimate D2E/DX2                !
 ! D18   D(3,4,5,9)            179.9999         estimate D2E/DX2                !
 ! D19   D(13,4,5,6)           179.9992         estimate D2E/DX2                !
 ! D20   D(13,4,5,9)            -0.0005         estimate D2E/DX2                !
 ! D21   D(3,4,13,14)          -90.0029         estimate D2E/DX2                !
 ! D22   D(5,4,13,14)           89.9975         estimate D2E/DX2                !
 ! D23   D(4,5,6,1)              0.0008         estimate D2E/DX2                !
 ! D24   D(4,5,6,10)          -179.9992         estimate D2E/DX2                !
 ! D25   D(9,5,6,1)           -179.9995         estimate D2E/DX2                !
 ! D26   D(9,5,6,10)             0.0005         estimate D2E/DX2                !
 --------------------------------------------------------------------------------
 Trust Radius=3.00D-01 FncErr=1.00D-07 GrdErr=1.00D-06 EigMax=2.50D+02 EigMin=1.00D-04
 Number of steps in this run=     71 maximum allowed number of steps=    100.
 GradGradGradGradGradGradGradGradGradGradGradGradGradGradGradGradGradGrad

                          Input orientation:                          
 ---------------------------------------------------------------------
 Center     Atomic      Atomic             Coordinates (Angstroms)
 Number     Number       Type             X           Y           Z
 ---------------------------------------------------------------------
      1          6           0       -1.884174   -0.000002   -0.000002
      2          6           0       -1.184241   -1.217999    0.000113
      3          6           0        0.205482   -1.206040    0.000106
      4          6           0        0.926268    0.000011    0.000005
      5          6           0        0.205472    1.206052   -0.000099
      6          6           0       -1.184251    1.218000   -0.000112
      7          1           0       -1.732858   -2.153551    0.000199
      8          1           0        0.745535   -2.147116    0.000191
      9          1           0        0.745518    2.147133   -0.000176
     10          1           0       -1.732876    2.153548   -0.000206
     11          6           0       -3.316336   -0.000011   -0.000004
     12          7           0       -4.479552    0.000001   -0.000001
     13          8           0        2.356268    0.000004   -0.000000
     14          1           0        2.676719    0.000122    0.904937
 ---------------------------------------------------------------------
                    Distance matrix (angstroms):
                    1          2          3          4          5
     1  C    0.000000
     2  C    1.404786   0.000000
     3  C    2.412714   1.389774   0.000000
     4  C    2.810442   2.436759   1.405024   0.000000
     5  C    2.412714   2.794159   2.412092   1.405020   0.000000
     6  C    1.404785   2.435999   2.794160   2.436758   1.389774
     7  H    2.158858   1.084545   2.157531   3.421810   3.878667
     8  H    3.394918   2.141797   1.085026   2.154720   3.396381
     9  H    3.394918   3.879186   3.396382   2.154717   1.085027
    10  H    2.158858   3.415894   3.878668   3.421808   2.157531
    11  C    1.432162   2.455468   3.722594   4.242604   3.722596
    12  N    2.595378   3.513203   4.837776   5.405820   4.837769
    13  O    4.240442   3.744160   2.465851   1.430000   2.465862
    14  H    4.649802   4.148438   2.894919   1.970527   2.894895
                    6          7          8          9         10
     6  C    0.000000
     7  H    3.415893   0.000000
     8  H    3.879185   2.478401   0.000000
     9  H    2.141797   4.963691   4.294249   0.000000
    10  H    1.084546   4.307099   4.963691   2.478402   0.000000
    11  C    2.455471   2.673039   4.594437   4.594441   2.673044
    12  N    3.513194   3.490289   5.649039   5.649029   3.490271
    13  O    3.744167   4.621553   2.684136   2.684153   4.621564
    14  H    4.148424   4.990113   3.026329   3.026288   4.990095
                   11         12         13         14
    11  C    0.000000
    12  N    1.163216   0.000000
    13  O    5.672604   6.835820   0.000000
    14  H    6.060992   7.213260   0.960000   0.000000
 Stoichiometry    C7H5NO
 Framework group  C1[X(C7H5NO)]
 Deg. of freedom    36
 Full point group                 C1      NOp   1
 Largest Abelian subgroup         C1      NOp   1
 Largest concise Abelian subgroup C1      NOp   1
                         Standard orientation:                         
 ---------------------------------------------------------------------
 Center     Atomic      Atomic             Coordinates (Angstroms)
 Number     Number       Type             X           Y           Z
 ---------------------------------------------------------------------
      1          6           0       -1.090796   -0.000003   -0.001871
      2          6           0       -0.390913   -1.218001   -0.010031
      3          6           0        0.998715   -1.206044   -0.026252
      4          6           0        1.719454    0.000005   -0.034657
      5          6           0        0.998710    1.206048   -0.026244
      6          6           0       -0.390919    1.217998   -0.010040
      7          1           0       -0.939495   -2.153552   -0.003626
      8          1           0        1.538730   -2.147121   -0.032552
      9          1           0        1.538720    2.147128   -0.032539
     10          1           0       -0.939505    2.153547   -0.003650
     11          6           0       -2.522861   -0.000009    0.014838
     12          7           0       -3.685998    0.000005    0.028414
     13          8           0        3.149357   -0.000004   -0.051348
     14          1           0        3.480345    0.000033    0.849789
 ---------------------------------------------------------------------
 Rotational constants (GHZ):           5.6182635           0.9681050           0.8279680
 Standard basis: 6-31G(d,p) (6D, 7F)
 There are   160 symmetry adapted cartesian basis functions of A   symmetry.
 There are   160 symmetry adapted basis functions of A   symmetry.
   160 basis functions,   287 primitive gaussians,   160 cartesian basis functions
    31 alpha electrons       31 beta electrons
       nuclear repulsion energy       372.4417262173 Hartrees.
 NAtoms=   14 NActive=   14 NUniq=   14 SFac= 1.00D+00 NAtFMM=   60 NAOKFM=F Big=F
 Integral buffers will be    131072 words long.
 Raffenetti 2 integral format.
 Two-electron integral symmetry is turned on.
 Nuclear repulsion after empirical dispersion term =      372.4163477189 Hartrees.
 One-electron integrals computed using PRISM.
 NBasis=   160 RedAO= T EigKep=  4.30D-04  NBF=   160
 NBsUse=   160 1.00D-06 EigRej= -1.00D+00 NBFU=   160
 ExpMin= 1.61D-01 ExpMax= 5.48D+03 ExpMxC= 8.25D+02 IAcc=3 IRadAn=         5 AccDes= 0.00D+00
 Harris functional with IExCor=  402 and IRadAn=       5 diagonalized for initial guess.
 HarFok:  IExCor=  402 AccDes= 0.00D+00 IRadAn=         5 IDoV= 1 UseB2=F ITyADJ=14
 ICtDFT=  3500011 ScaDFX=  1.000000  1.000000  1.000000  1.000000
 FoFCou: FMM=F IPFlag=           0 FMFlag=      100000 FMFlg1=           0
         NFxFlg=           0 DoJE=T BraDBF=F KetDBF=T FulRan=T
         wScrn=  0.000000 ICntrl=       500 IOpCl=  0 I1Cent=   200000004 NGrid=           0
         NMat0=    1 NMatS0=      1 NMatT0=    0 NMatD0=    1 NMtDS0=    0 NMtDT0=    0
 Petite list used in FoFCou.
 Keep R1 ints in memory in canonical form, NReq=85041532.
 Requested convergence on RMS density matrix=1.00D-08 within 128 cycles.
 Requested convergence on MAX density matrix=1.00D-06.
 Requested convergence on             energy=1.00D-06.
 No special actions if energy rises.
 Integral accuracy reduced to 1.0D-05 until final iterations.
 Initial convergence to 1.0D-05 achieved.  Increase integral accuracy.
 SCF Done:  E(RB3LYP) =  -399.736982011     A.U. after   15 cycles
            NFock= 15  Conv=0.31D-08     -V/T= 2.0097

 **********************************************************************

            Population analysis using the SCF Density.

 **********************************************************************

 Orbital symmetries:
       Occupied  (A) (A) (A) (A) (A) (A) (A) (A) (A) (A) (A) (A)
                 (A) (A) (A) (A) (A) (A) (A) (A) (A) (A) (A) (A)
                 (A) (A) (A) (A) (A) (A) (A)
       Virtual   (A) (A) (A) (A) (A) (A) (A) (A) (A) (A) (A) (A)
                 (A) (A) (A) (A) (A) (A) (A) (A) (A) (A) (A) (A)
                 (A) (A) (A) (A) (A) (A) (A) (A) (A) (A) (A) (A)
                 (A) (A) (A) (A) (A) (A) (A) (A) (A) (A) (A) (A)
                 (A) (A) (A) (A) (A) (A) (A) (A) (A) (A) (A) (A)
                 (A) (A) (A) (A) (A) (A) (A) (A) (A) (A) (A) (A)
                 (A) (A) (A) (A) (A) (A) (A) (A) (A) (A) (A) (A)
                 (A) (A) (A) (A) (A) (A) (A) (A) (A) (A) (A) (A)
                 (A) (A) (A) (A) (A) (A) (A) (A) (A) (A) (A) (A)
                 (A) (A) (A) (A) (A) (A) (A) (A) (A) (A) (A) (A)
                 (A) (A) (A) (A) (A) (A) (A) (A) (A)
 The electronic state is 1-A.
 Alpha  occ. eigenvalues --  -19.18233 -14.33589 -10.27606 -10.24299 -10.22899
 Alpha  occ. eigenvalues --  -10.22556 -10.22555 -10.21701 -10.21701  -1.04779
 Alpha  occ. eigenvalues --   -0.90787  -0.87795  -0.78036  -0.77673  -0.65391
 Alpha  occ. eigenvalues --   -0.63862  -0.56876  -0.55145  -0.49432  -0.47202
 Alpha  occ. eigenvalues --   -0.44925  -0.44454  -0.41205  -0.39331  -0.38644
 Alpha  occ. eigenvalues --   -0.35848  -0.34155  -0.33077  -0.31347  -0.28117
 Alpha  occ. eigenvalues --   -0.26181
 Alpha virt. eigenvalues --   -0.05268  -0.02886   0.03628   0.05394   0.07553
 Alpha virt. eigenvalues --    0.08493   0.12399   0.14211   0.16293   0.18188
 Alpha virt. eigenvalues --    0.18906   0.20414   0.27198   0.29856   0.30307
 Alpha virt. eigenvalues --    0.34165   0.38996   0.46141   0.48901   0.50383
 Alpha virt. eigenvalues --    0.52730   0.53234   0.54078   0.56038   0.57088
 Alpha virt. eigenvalues --    0.58448   0.59137   0.59392   0.63146   0.63573
 Alpha virt. eigenvalues --    0.64187   0.66863   0.69217   0.72017   0.73875
 Alpha virt. eigenvalues --    0.75704   0.78485   0.79936   0.82784   0.83266
 Alpha virt. eigenvalues --    0.84010   0.86139   0.87086   0.88590   0.93961
 Alpha virt. eigenvalues --    0.94694   0.99405   1.00570   1.03105   1.08142
 Alpha virt. eigenvalues --    1.09452   1.14051   1.17154   1.19666   1.19768
 Alpha virt. eigenvalues --    1.21372   1.30462   1.35109   1.36484   1.36750
 Alpha virt. eigenvalues --    1.37845   1.42478   1.44787   1.50532   1.52983
 Alpha virt. eigenvalues --    1.55899   1.57712   1.67205   1.73444   1.75633
 Alpha virt. eigenvalues --    1.75840   1.77228   1.82244   1.83714   1.89763
 Alpha virt. eigenvalues --    1.91299   1.91544   1.92231   1.93192   1.96354
 Alpha virt. eigenvalues --    1.96979   2.01860   2.05591   2.05766   2.06226
 Alpha virt. eigenvalues --    2.09240   2.19620   2.25176   2.27706   2.32954
 Alpha virt. eigenvalues --    2.37015   2.38440   2.38976   2.41983   2.43388
 Alpha virt. eigenvalues --    2.44093   2.44607   2.50800   2.53492   2.57216
 Alpha virt. eigenvalues --    2.59581   2.60040   2.67297   2.70293   2.70619
 Alpha virt. eigenvalues --    2.79730   2.80429   2.82222   2.85048   2.93620
 Alpha virt. eigenvalues --    3.02420   3.03504   3.16089   3.22396   3.25245
 Alpha virt. eigenvalues --    3.33961   3.33995   3.40387   3.48921   3.79376
 Alpha virt. eigenvalues --    4.02081   4.04563   4.11924   4.12954   4.23904
 Alpha virt. eigenvalues --    4.32433   4.40469   4.58258   4.88153
          Condensed to atoms (all electrons):
               1          2          3          4          5          6
     1  C    4.876738   0.533571  -0.026476  -0.032737  -0.026476   0.533576
     2  C    0.533571   4.871887   0.470911  -0.020867  -0.039626  -0.040823
     3  C   -0.026476   0.470911   4.964539   0.509290  -0.065255  -0.039626
     4  C   -0.032737  -0.020867   0.509290   4.610622   0.509288  -0.020866
     5  C   -0.026476  -0.039626  -0.065255   0.509288   4.964545   0.470909
     6  C    0.533576  -0.040823  -0.039626  -0.020866   0.470909   4.871884
     7  H   -0.039934   0.372323  -0.033292   0.003458   0.000162   0.004921
     8  H    0.004266  -0.036243   0.359978  -0.036684   0.005911   0.000531
     9  H    0.004266   0.000531   0.005911  -0.036684   0.359977  -0.036243
    10  H   -0.039934   0.004921   0.000162   0.003458  -0.033292   0.372323
    11  C    0.212962  -0.040668   0.005020   0.001136   0.005020  -0.040671
    12  N   -0.097355  -0.000188  -0.000092   0.000013  -0.000092  -0.000188
    13  O   -0.000037   0.004160  -0.049192   0.229959  -0.049191   0.004160
    14  H    0.000011  -0.000096  -0.002000  -0.024838  -0.002001  -0.000096
               7          8          9         10         11         12
     1  C   -0.039934   0.004266   0.004266  -0.039934   0.212962  -0.097355
     2  C    0.372323  -0.036243   0.000531   0.004921  -0.040668  -0.000188
     3  C   -0.033292   0.359978   0.005911   0.000162   0.005020  -0.000092
     4  C    0.003458  -0.036684  -0.036684   0.003458   0.001136   0.000013
     5  C    0.000162   0.005911   0.359977  -0.033292   0.005020  -0.000092
     6  C    0.004921   0.000531  -0.036243   0.372323  -0.040671  -0.000188
     7  H    0.584816  -0.006212   0.000015  -0.000161  -0.007208   0.000557
     8  H   -0.006212   0.601628  -0.000180   0.000015  -0.000226  -0.000001
     9  H    0.000015  -0.000180   0.601629  -0.006212  -0.000226  -0.000001
    10  H   -0.000161   0.000015  -0.006212   0.584815  -0.007207   0.000557
    11  C   -0.007208  -0.000226  -0.000226  -0.007207   4.758333   0.876528
    12  N    0.000557  -0.000001  -0.000001   0.000557   0.876528   6.696983
    13  O   -0.000042  -0.001103  -0.001103  -0.000042  -0.000001  -0.000000
    14  H    0.000003   0.000109   0.000110   0.000003  -0.000000   0.000000
              13         14
     1  C   -0.000037   0.000011
     2  C    0.004160  -0.000096
     3  C   -0.049192  -0.002000
     4  C    0.229959  -0.024838
     5  C   -0.049191  -0.002001
     6  C    0.004160  -0.000096
     7  H   -0.000042   0.000003
     8  H   -0.001103   0.000109
     9  H   -0.001103   0.000110
    10  H   -0.000042   0.000003
    11  C   -0.000001  -0.000000
    12  N   -0.000000   0.000000
    13  O    8.156081   0.294141
    14  H    0.294141   0.408622
 Mulliken charges:
               1
     1  C    0.097557
     2  C   -0.079793
     3  C   -0.099877
     4  C    0.305452
     5  C   -0.099879
     6  C   -0.079792
     7  H    0.120595
     8  H    0.108209
     9  H    0.108209
    10  H    0.120595
    11  C    0.237205
    12  N   -0.476723
    13  O   -0.587790
    14  H    0.326033
 Sum of Mulliken charges =  -0.00000
 Mulliken charges with hydrogens summed into heavy atoms:
               1
     1  C    0.097557
     2  C    0.040801
     3  C    0.008332
     4  C    0.305452
     5  C    0.008330
     6  C    0.040803
    11  C    0.237205
    12  N   -0.476723
    13  O   -0.261757
 Electronic spatial extent (au):  <R**2>=           1278.7592
 Charge=             -0.0000 electrons
 Dipole moment (field-independent basis, Debye):
    X=              4.0713    Y=              0.0001    Z=              1.4909  Tot=              4.3357
 Quadrupole moment (field-independent basis, Debye-Ang):
   XX=            -66.6898   YY=            -43.8674   ZZ=            -50.9755
   XY=              0.0003   XZ=              5.9928   YZ=              0.0000
 Traceless Quadrupole moment (field-independent basis, Debye-Ang):
   XX=            -12.8455   YY=              9.9769   ZZ=              2.8687
   XY=              0.0003   XZ=              5.9928   YZ=              0.0000
 Octapole moment (field-independent basis, Debye-Ang**2):
  XXX=            100.8249  YYY=             -0.0000  ZZZ=              2.0985  XYY=              4.5954
  XXY=              0.0007  XXZ=             20.8138  XZZ=              9.4193  YZZ=              0.0000
  YYZ=              0.0410  XYZ=              0.0003
 Hexadecapole moment (field-independent basis, Debye-Ang**3):
 XXXX=          -1597.7605 YYYY=           -267.1296 ZZZZ=            -51.3393 XXXY=              0.0037
 XXXZ=             82.1460 YYYX=             -0.0001 YYYZ=             -0.0001 ZZZX=              7.4407
 ZZZY=              0.0001 XXYY=           -254.9718 XXZZ=           -207.4372 YYZZ=            -63.8041
 XXYZ=              0.0008 YYXZ=              0.7145 ZZXY=              0.0002
 N-N= 3.724163477189D+02 E-N=-1.674272118015D+03  KE= 3.958862621961D+02
 Calling FoFJK, ICntrl=      2127 FMM=F ISym2X=0 I1Cent= 0 IOpClX= 0 NMat=1 NMatS=1 NMatT=0.
 ***** Axes restored to original set *****
 -------------------------------------------------------------------
 Center     Atomic                   Forces (Hartrees/Bohr)
 Number     Number              X              Y              Z
 -------------------------------------------------------------------
      1        6          -0.002621667   -0.000001109    0.000132699
      2        6           0.001003159    0.005933169   -0.000816927
      3        6           0.010413080   -0.002695805   -0.000489429
      4        6           0.011777940   -0.000002994    0.007140222
      5        6           0.010414308    0.002698441   -0.000491310
      6        6           0.001001896   -0.005932860   -0.000814635
      7        1           0.000861622    0.000227580    0.000026854
      8        1           0.001539411    0.000640239   -0.000038716
      9        1           0.001538866   -0.000640380   -0.000038709
     10        1           0.000861905   -0.000227905    0.000027270
     11        6          -0.000463285    0.000001617    0.000023893
     12        7           0.000036431   -0.000000630    0.000048774
     13        8          -0.035131223   -0.000000737   -0.011997342
     14        1          -0.001232442    0.000001374    0.007287356
 -------------------------------------------------------------------
 Cartesian Forces:  Max     0.035131223 RMS     0.006800542

 GradGradGradGradGradGradGradGradGradGradGradGradGradGradGradGradGradGrad
 Berny optimization.
 FormGI is forming the generalized inverse of G from B-inverse, IUseBI=4.
 Internal  Forces:  Max     0.036363683 RMS     0.005569713
 Search for a local minimum.
 Step number   1 out of a maximum of   71
 All quantities printed in internal units (Hartrees-Bohrs-Radians)
 Mixed Optimization -- RFO/linear search
 Second derivative matrix not updated -- first step.
 ITU=  0
     Eigenvalues ---    0.01295   0.01892   0.02023   0.02025   0.02085
     Eigenvalues ---    0.02091   0.02125   0.02125   0.02156   0.02157
     Eigenvalues ---    0.04824   0.04824   0.16000   0.16000   0.16000
     Eigenvalues ---    0.16000   0.16000   0.22000   0.22966   0.24000
     Eigenvalues ---    0.25000   0.25000   0.35394   0.35394   0.35451
     Eigenvalues ---    0.35451   0.40680   0.40989   0.41189   0.41836
     Eigenvalues ---    0.44817   0.44818   0.45986   0.47358   0.55473
     Eigenvalues ---    1.25712
 RFO step:  Lambda=-5.49688267D-03 EMin= 1.29493790D-02
 Linear search not attempted -- first point.
 Iteration  1 RMS(Cart)=  0.02879886 RMS(Int)=  0.00046238
 Iteration  2 RMS(Cart)=  0.00041387 RMS(Int)=  0.00024152
 Iteration  3 RMS(Cart)=  0.00000021 RMS(Int)=  0.00024152
 Variable       Old X    -DE/DX   Delta X   Delta X   Delta X     New X
                                 (Linear)    (Quad)   (Total)
    R1        2.65466  -0.00009   0.00000   0.00027   0.00012   2.65478
    R2        2.65466  -0.00009   0.00000   0.00027   0.00012   2.65478
    R3        2.70639   0.00043   0.00000   0.00104   0.00104   2.70743
    R4        2.62629  -0.00038   0.00000  -0.00081  -0.00081   2.62549
    R5        2.04949  -0.00063   0.00000  -0.00176  -0.00176   2.04774
    R6        2.65511  -0.00899   0.00000  -0.02029  -0.02014   2.63497
    R7        2.05040   0.00021   0.00000   0.00059   0.00059   2.05099
    R8        2.65510  -0.00899   0.00000  -0.02028  -0.02013   2.63497
    R9        2.70231  -0.03636   0.00000  -0.08754  -0.08754   2.61477
   R10        2.62629  -0.00038   0.00000  -0.00081  -0.00081   2.62549
   R11        2.05040   0.00021   0.00000   0.00059   0.00059   2.05099
   R12        2.04949  -0.00063   0.00000  -0.00176  -0.00176   2.04774
   R13        2.19816  -0.00004   0.00000  -0.00003  -0.00003   2.19813
   R14        1.81414   0.00646   0.00000   0.01153   0.01153   1.82566
    A1        2.09844  -0.00211   0.00000  -0.00582  -0.00604   2.09240
    A2        2.09237   0.00105   0.00000   0.00291   0.00302   2.09538
    A3        2.09237   0.00105   0.00000   0.00291   0.00301   2.09538
    A4        2.08377   0.00153   0.00000   0.00855   0.00849   2.09226
    A5        2.08965  -0.00012   0.00000  -0.00039  -0.00035   2.08929
    A6        2.10977  -0.00141   0.00000  -0.00816  -0.00813   2.10164
    A7        2.11808  -0.00597   0.00000  -0.02665  -0.02642   2.09166
    A8        2.08317   0.00468   0.00000   0.02357   0.02344   2.10661
    A9        2.08193   0.00129   0.00000   0.00308   0.00295   2.08487
   A10        2.06422   0.01100   0.00000   0.04202   0.04183   2.10605
   A11        2.10947  -0.00550   0.00000  -0.02101  -0.02174   2.08773
   A12        2.10949  -0.00550   0.00000  -0.02102  -0.02175   2.08774
   A13        2.11809  -0.00597   0.00000  -0.02665  -0.02642   2.09166
   A14        2.08192   0.00129   0.00000   0.00308   0.00295   2.08487
   A15        2.08317   0.00468   0.00000   0.02357   0.02344   2.10661
   A16        2.08377   0.00153   0.00000   0.00855   0.00849   2.09226
   A17        2.08965  -0.00012   0.00000  -0.00038  -0.00035   2.08929
   A18        2.10977  -0.00141   0.00000  -0.00816  -0.00813   2.10164
   A19        1.91113  -0.00652   0.00000  -0.03940  -0.03940   1.87173
   A20        3.14158   0.00000   0.00000   0.00003   0.00003   3.14160
   A21        3.14160   0.00009   0.00000   0.00160   0.00160   3.14320
    D1       -0.00001   0.00020   0.00000   0.00832   0.00829   0.00828
    D2        3.14159   0.00020   0.00000   0.00856   0.00852  -3.13307
    D3        3.14159   0.00007   0.00000   0.00243   0.00244  -3.13916
    D4        0.00000   0.00007   0.00000   0.00268   0.00267   0.00267
    D5       -0.00001  -0.00020   0.00000  -0.00830  -0.00828  -0.00828
    D6        3.14159  -0.00020   0.00000  -0.00856  -0.00852   3.13307
    D7        3.14158  -0.00007   0.00000  -0.00241  -0.00242   3.13916
    D8       -0.00001  -0.00007   0.00000  -0.00267  -0.00266  -0.00267
    D9        0.00002   0.00002   0.00000   0.00154   0.00146   0.00148
   D10       -3.14159   0.00028   0.00000   0.01097   0.01096  -3.13062
   D11       -3.14158   0.00003   0.00000   0.00129   0.00123  -3.14035
   D12       -0.00000   0.00029   0.00000   0.01072   0.01073   0.01073
   D13       -0.00001  -0.00024   0.00000  -0.01110  -0.01137  -0.01137
   D14        3.14159   0.00126   0.00000   0.05067   0.05086  -3.09073
   D15       -3.14159  -0.00050   0.00000  -0.02052  -0.02075   3.12085
   D16        0.00001   0.00100   0.00000   0.04125   0.04148   0.04149
   D17       -0.00001   0.00024   0.00000   0.01111   0.01138   0.01137
   D18        3.14159   0.00050   0.00000   0.02052   0.02075  -3.12085
   D19        3.14158  -0.00126   0.00000  -0.05066  -0.05085   3.09073
   D20       -0.00001  -0.00100   0.00000  -0.04125  -0.04148  -0.04149
   D21       -1.57085  -0.00077   0.00000  -0.03171  -0.03080  -1.60165
   D22        1.57075   0.00077   0.00000   0.03167   0.03077   1.60152
   D23        0.00001  -0.00003   0.00000  -0.00157  -0.00150  -0.00148
   D24       -3.14158  -0.00003   0.00000  -0.00131  -0.00125   3.14036
   D25       -3.14158  -0.00028   0.00000  -0.01098  -0.01098   3.13062
   D26        0.00001  -0.00029   0.00000  -0.01072  -0.01073  -0.01072
         Item               Value     Threshold  Converged?
 Maximum Force            0.036364     0.000450     NO 
 RMS     Force            0.005570     0.000300     NO 
 Maximum Displacement     0.126492     0.001800     NO 
 RMS     Displacement     0.029006     0.001200     NO 
 Predicted change in Energy=-2.825640D-03
 GradGradGradGradGradGradGradGradGradGradGradGradGradGradGradGradGradGrad

                          Input orientation:                          
 ---------------------------------------------------------------------
 Center     Atomic      Atomic             Coordinates (Angstroms)
 Number     Number       Type             X           Y           Z
 ---------------------------------------------------------------------
      1          6           0       -1.876354    0.000000    0.004081
      2          6           0       -1.172715   -1.215934    0.003768
      3          6           0        0.216595   -1.211594    0.012919
      4          6           0        0.906636    0.000007    0.024164
      5          6           0        0.216591    1.211603    0.012704
      6          6           0       -1.172720    1.215936    0.003554
      7          1           0       -1.718344   -2.152126   -0.003844
      8          1           0        0.773697   -2.142983    0.002562
      9          1           0        0.773688    2.142993    0.002182
     10          1           0       -1.718352    2.152124   -0.004228
     11          6           0       -3.309050   -0.000003   -0.002323
     12          7           0       -4.472244   -0.000010   -0.006019
     13          8           0        2.289331   -0.000001   -0.027912
     14          1           0        2.610215    0.000140    0.883342
 ---------------------------------------------------------------------
                    Distance matrix (angstroms):
                    1          2          3          4          5
     1  C    0.000000
     2  C    1.404850   0.000000
     3  C    2.418362   1.389347   0.000000
     4  C    2.783063   2.408865   1.394367   0.000000
     5  C    2.418362   2.796996   2.423197   1.394366   0.000000
     6  C    1.404849   2.431870   2.796996   2.408865   1.389348
     7  H    2.157933   1.083616   2.151481   3.394552   3.880582
     8  H    3.408101   2.155909   1.085336   2.147218   3.400546
     9  H    3.408100   3.882123   3.400547   2.147218   1.085337
    10  H    2.157932   3.411979   3.880582   3.394551   2.151481
    11  C    1.432710   2.458140   3.728050   4.215769   3.728050
    12  N    2.595910   3.516455   4.842882   5.378965   4.842885
    13  O    4.165808   3.669504   2.401221   1.383675   2.401226
    14  H    4.571914   4.069772   2.820524   1.907974   2.820476
                    6          7          8          9         10
     6  C    0.000000
     7  H    3.411979   0.000000
     8  H    3.882123   2.492066   0.000000
     9  H    2.155908   4.965713   4.285976   0.000000
    10  H    1.083616   4.304250   4.965713   2.492065   0.000000
    11  C    2.458139   2.676187   4.610988   4.610986   2.676186
    12  N    3.516458   3.495078   5.666772   5.666775   3.495084
    13  O    3.669508   4.549031   2.624966   2.624977   4.549036
    14  H    4.069740   4.914852   2.956611   2.956534   4.914805
                   11         12         13         14
    11  C    0.000000
    12  N    1.163201   0.000000
    13  O    5.598439   6.761611   0.000000
    14  H    5.985156   7.138081   0.966100   0.000000
 Stoichiometry    C7H5NO
 Framework group  C1[X(C7H5NO)]
 Deg. of freedom    36
 Full point group                 C1      NOp   1
 Largest Abelian subgroup         C1      NOp   1
 Largest concise Abelian subgroup C1      NOp   1
                         Standard orientation:                         
 ---------------------------------------------------------------------
 Center     Atomic      Atomic             Coordinates (Angstroms)
 Number     Number       Type             X           Y           Z
 ---------------------------------------------------------------------
      1          6           0       -1.079379    0.000001    0.000243
      2          6           0       -0.375790   -1.215935   -0.007850
      3          6           0        1.013538   -1.211599   -0.013852
      4          6           0        1.703665   -0.000001   -0.010026
      5          6           0        1.013540    1.211598   -0.013854
      6          6           0       -0.375789    1.215935   -0.007851
      7          1           0       -0.921473   -2.152124   -0.009593
      8          1           0        1.570490   -2.142989   -0.030365
      9          1           0        1.570492    2.142988   -0.030370
     10          1           0       -0.921470    2.152126   -0.009600
     11          6           0       -2.512059    0.000003    0.009465
     12          7           0       -3.675225   -0.000002    0.018455
     13          8           0        3.085709   -0.000008   -0.077179
     14          1           0        3.416512    0.000053    0.830521
 ---------------------------------------------------------------------
 Rotational constants (GHZ):           5.6094835           0.9849873           0.8400534
 Standard basis: 6-31G(d,p) (6D, 7F)
 There are   160 symmetry adapted cartesian basis functions of A   symmetry.
 There are   160 symmetry adapted basis functions of A   symmetry.
   160 basis functions,   287 primitive gaussians,   160 cartesian basis functions
    31 alpha electrons       31 beta electrons
       nuclear repulsion energy       374.6992799964 Hartrees.
 NAtoms=   14 NActive=   14 NUniq=   14 SFac= 1.00D+00 NAtFMM=   60 NAOKFM=F Big=F
 Integral buffers will be    131072 words long.
 Raffenetti 2 integral format.
 Two-electron integral symmetry is turned on.
 Nuclear repulsion after empirical dispersion term =      374.6737877740 Hartrees.
 One-electron integrals computed using PRISM.
 NBasis=   160 RedAO= T EigKep=  4.23D-04  NBF=   160
 NBsUse=   160 1.00D-06 EigRej= -1.00D+00 NBFU=   160
 Initial guess from the checkpoint file:  "by_product_phenol.chk"
 B after Tr=    -0.000000    0.000000   -0.000000
         Rot=    1.000000    0.000000    0.000088    0.000000 Ang=   0.01 deg.
 ExpMin= 1.61D-01 ExpMax= 5.48D+03 ExpMxC= 8.25D+02 IAcc=3 IRadAn=         5 AccDes= 0.00D+00
 Harris functional with IExCor=  402 and IRadAn=       5 diagonalized for initial guess.
 HarFok:  IExCor=  402 AccDes= 0.00D+00 IRadAn=         5 IDoV= 1 UseB2=F ITyADJ=14
 ICtDFT=  3500011 ScaDFX=  1.000000  1.000000  1.000000  1.000000
 FoFCou: FMM=F IPFlag=           0 FMFlag=      100000 FMFlg1=           0
         NFxFlg=           0 DoJE=T BraDBF=F KetDBF=T FulRan=T
         wScrn=  0.000000 ICntrl=       500 IOpCl=  0 I1Cent=   200000004 NGrid=           0
         NMat0=    1 NMatS0=      1 NMatT0=    0 NMatD0=    1 NMtDS0=    0 NMtDT0=    0
 Petite list used in FoFCou.
 Keep R1 ints in memory in canonical form, NReq=85041532.
 Requested convergence on RMS density matrix=1.00D-08 within 128 cycles.
 Requested convergence on MAX density matrix=1.00D-06.
 Requested convergence on             energy=1.00D-06.
 No special actions if energy rises.
 Integral accuracy reduced to 1.0D-05 until final iterations.
 Initial convergence to 1.0D-05 achieved.  Increase integral accuracy.
 SCF Done:  E(RB3LYP) =  -399.739546368     A.U. after   12 cycles
            NFock= 12  Conv=0.43D-08     -V/T= 2.0093
 Calling FoFJK, ICntrl=      2127 FMM=F ISym2X=0 I1Cent= 0 IOpClX= 0 NMat=1 NMatS=1 NMatT=0.
 ***** Axes restored to original set *****
 -------------------------------------------------------------------
 Center     Atomic                   Forces (Hartrees/Bohr)
 Number     Number              X              Y              Z
 -------------------------------------------------------------------
      1        6          -0.000724919   -0.000000178   -0.000279833
      2        6          -0.000478153    0.000765773    0.000393000
      3        6          -0.001579376   -0.002704055    0.000087343
      4        6           0.003625101   -0.000001295   -0.003278814
      5        6          -0.001579559    0.002704961    0.000087484
      6        6          -0.000477629   -0.000765490    0.000392912
      7        1          -0.000476334   -0.000198090   -0.000030911
      8        1           0.000291886    0.000912504   -0.000040050
      9        1           0.000291831   -0.000912523   -0.000040041
     10        1          -0.000476316    0.000198121   -0.000030765
     11        6           0.000576875   -0.000000400   -0.000075396
     12        7          -0.000063527    0.000000175    0.000042489
     13        8          -0.002258726   -0.000000074    0.003000606
     14        1           0.003328847    0.000000572   -0.000228023
 -------------------------------------------------------------------
 Cartesian Forces:  Max     0.003625101 RMS     0.001327577

 GradGradGradGradGradGradGradGradGradGradGradGradGradGradGradGradGradGrad
 Berny optimization.
 Using GEDIIS/GDIIS optimizer.
 FormGI is forming the generalized inverse of G from B-inverse, IUseBI=4.
 Internal  Forces:  Max     0.005870471 RMS     0.000988803
 Search for a local minimum.
 Step number   2 out of a maximum of   71
 All quantities printed in internal units (Hartrees-Bohrs-Radians)
 Mixed Optimization -- En-DIIS/RFO-DIIS
 Update second derivatives using D2CorX and points    1    2
 DE= -2.56D-03 DEPred=-2.83D-03 R= 9.08D-01
 TightC=F SS=  1.41D+00  RLast= 1.68D-01 DXNew= 5.0454D-01 5.0313D-01
 Trust test= 9.08D-01 RLast= 1.68D-01 DXMaxT set to 5.03D-01
 ITU=  1  0
 Use linear search instead of GDIIS.
     Eigenvalues ---    0.01295   0.01967   0.02025   0.02030   0.02090
     Eigenvalues ---    0.02092   0.02125   0.02126   0.02157   0.02159
     Eigenvalues ---    0.04824   0.04824   0.15729   0.15999   0.16000
     Eigenvalues ---    0.16000   0.16857   0.22000   0.23107   0.24538
     Eigenvalues ---    0.24952   0.25000   0.35356   0.35394   0.35451
     Eigenvalues ---    0.35452   0.39340   0.40693   0.41894   0.42622
     Eigenvalues ---    0.44817   0.45931   0.45973   0.47817   0.55274
     Eigenvalues ---    1.25712
 RFO step:  Lambda=-2.00947345D-04 EMin= 1.29493789D-02
 Quartic linear search produced a step of -0.08522.
 Iteration  1 RMS(Cart)=  0.00674706 RMS(Int)=  0.00008429
 Iteration  2 RMS(Cart)=  0.00007447 RMS(Int)=  0.00001835
 Iteration  3 RMS(Cart)=  0.00000000 RMS(Int)=  0.00001835
 Variable       Old X    -DE/DX   Delta X   Delta X   Delta X     New X
                                 (Linear)    (Quad)   (Total)
    R1        2.65478  -0.00023  -0.00001  -0.00068  -0.00068   2.65410
    R2        2.65478  -0.00023  -0.00001  -0.00068  -0.00068   2.65410
    R3        2.70743  -0.00051  -0.00009  -0.00102  -0.00111   2.70632
    R4        2.62549   0.00106   0.00007   0.00194   0.00201   2.62750
    R5        2.04774   0.00041   0.00015   0.00083   0.00098   2.04872
    R6        2.63497   0.00251   0.00172   0.00277   0.00447   2.63944
    R7        2.05099  -0.00063  -0.00005  -0.00156  -0.00161   2.04938
    R8        2.63497   0.00251   0.00172   0.00277   0.00447   2.63944
    R9        2.61477   0.00096   0.00746  -0.00909  -0.00163   2.61313
   R10        2.62549   0.00106   0.00007   0.00194   0.00201   2.62750
   R11        2.05099  -0.00063  -0.00005  -0.00156  -0.00161   2.04938
   R12        2.04774   0.00041   0.00015   0.00083   0.00098   2.04872
   R13        2.19813   0.00006   0.00000   0.00004   0.00004   2.19818
   R14        1.82566   0.00089  -0.00098   0.00293   0.00195   1.82762
    A1        2.09240   0.00017   0.00051  -0.00113  -0.00060   2.09180
    A2        2.09538  -0.00008  -0.00026   0.00057   0.00031   2.09569
    A3        2.09538  -0.00008  -0.00026   0.00057   0.00031   2.09569
    A4        2.09226   0.00041  -0.00072   0.00222   0.00150   2.09376
    A5        2.08929  -0.00052   0.00003  -0.00240  -0.00238   2.08692
    A6        2.10164   0.00012   0.00069   0.00018   0.00087   2.10251
    A7        2.09166   0.00026   0.00225  -0.00208   0.00015   2.09182
    A8        2.10661   0.00061  -0.00200   0.00665   0.00466   2.11127
    A9        2.08487  -0.00087  -0.00025  -0.00457  -0.00481   2.08006
   A10        2.10605  -0.00150  -0.00356   0.00087  -0.00268   2.10337
   A11        2.08773   0.00076   0.00185  -0.00038   0.00153   2.08926
   A12        2.08774   0.00076   0.00185  -0.00038   0.00152   2.08926
   A13        2.09166   0.00026   0.00225  -0.00208   0.00015   2.09182
   A14        2.08487  -0.00087  -0.00025  -0.00457  -0.00481   2.08006
   A15        2.10661   0.00061  -0.00200   0.00665   0.00466   2.11127
   A16        2.09226   0.00041  -0.00072   0.00222   0.00150   2.09376
   A17        2.08929  -0.00052   0.00003  -0.00240  -0.00238   2.08692
   A18        2.10164   0.00012   0.00069   0.00018   0.00087   2.10251
   A19        1.87173   0.00587   0.00336   0.02815   0.03150   1.90323
   A20        3.14160  -0.00000  -0.00000   0.00000   0.00000   3.14160
   A21        3.14320   0.00008  -0.00014   0.00169   0.00155   3.14475
    D1        0.00828  -0.00012  -0.00071  -0.00343  -0.00413   0.00415
    D2       -3.13307  -0.00006  -0.00073  -0.00106  -0.00178  -3.13485
    D3       -3.13916  -0.00003  -0.00021  -0.00063  -0.00084  -3.14000
    D4        0.00267   0.00003  -0.00023   0.00173   0.00151   0.00417
    D5       -0.00828   0.00012   0.00071   0.00343   0.00413  -0.00415
    D6        3.13307   0.00006   0.00073   0.00106   0.00179   3.13485
    D7        3.13916   0.00003   0.00021   0.00064   0.00084   3.14001
    D8       -0.00267  -0.00003   0.00023  -0.00173  -0.00150  -0.00418
    D9        0.00148   0.00004  -0.00012   0.00162   0.00150   0.00298
   D10       -3.13062  -0.00000  -0.00093   0.00213   0.00120  -3.12942
   D11       -3.14035  -0.00002  -0.00010  -0.00077  -0.00087  -3.14122
   D12        0.01073  -0.00006  -0.00091  -0.00025  -0.00117   0.00956
   D13       -0.01137   0.00006   0.00097   0.00017   0.00116  -0.01021
   D14       -3.09073  -0.00030  -0.00433  -0.00184  -0.00619  -3.09692
   D15        3.12085   0.00011   0.00177  -0.00027   0.00151   3.12236
   D16        0.04149  -0.00026  -0.00353  -0.00228  -0.00584   0.03566
   D17        0.01137  -0.00006  -0.00097  -0.00017  -0.00116   0.01022
   D18       -3.12085  -0.00011  -0.00177   0.00027  -0.00151  -3.12236
   D19        3.09073   0.00030   0.00433   0.00184   0.00619   3.09692
   D20       -0.04149   0.00026   0.00354   0.00228   0.00584  -0.03565
   D21       -1.60165   0.00014   0.00263   0.00097   0.00353  -1.59812
   D22        1.60152  -0.00014  -0.00262  -0.00106  -0.00361   1.59791
   D23       -0.00148  -0.00004   0.00013  -0.00163  -0.00151  -0.00299
   D24        3.14036   0.00002   0.00011   0.00076   0.00086   3.14122
   D25        3.13062   0.00000   0.00094  -0.00214  -0.00120   3.12942
   D26       -0.01072   0.00006   0.00091   0.00025   0.00117  -0.00956
         Item               Value     Threshold  Converged?
 Maximum Force            0.005870     0.000450     NO 
 RMS     Force            0.000989     0.000300     NO 
 Maximum Displacement     0.046758     0.001800     NO 
 RMS     Displacement     0.006734     0.001200     NO 
 Predicted change in Energy=-1.271415D-04
 GradGradGradGradGradGradGradGradGradGradGradGradGradGradGradGradGradGrad

                          Input orientation:                          
 ---------------------------------------------------------------------
 Center     Atomic      Atomic             Coordinates (Angstroms)
 Number     Number       Type             X           Y           Z
 ---------------------------------------------------------------------
      1          6           0       -1.879455   -0.000001    0.002289
      2          6           0       -1.175636   -1.215414    0.004206
      3          6           0        0.214745   -1.212727    0.012789
      4          6           0        0.907600    0.000002    0.023095
      5          6           0        0.214745    1.212728    0.012574
      6          6           0       -1.175637    1.215412    0.003996
      7          1           0       -1.723461   -2.150924   -0.003477
      8          1           0        0.774624   -2.141463    0.003075
      9          1           0        0.774622    2.141463    0.002695
     10          1           0       -1.723461    2.150922   -0.003851
     11          6           0       -3.311562   -0.000002   -0.004577
     12          7           0       -4.474783   -0.000007   -0.007199
     13          8           0        2.289675   -0.000006   -0.022031
     14          1           0        2.634958    0.000170    0.881365
 ---------------------------------------------------------------------
                    Distance matrix (angstroms):
                    1          2          3          4          5
     1  C    0.000000
     2  C    1.404490   0.000000
     3  C    2.420019   1.390411   0.000000
     4  C    2.787133   2.411942   1.396734   0.000000
     5  C    2.420019   2.798053   2.425456   1.396734   0.000000
     6  C    1.404490   2.430826   2.798053   2.411942   1.390411
     7  H    2.156581   1.084136   2.153397   3.398480   3.882146
     8  H    3.410278   2.158954   1.084485   2.145682   3.400610
     9  H    3.410277   3.882284   3.400611   2.145683   1.084485
    10  H    2.156580   3.410629   3.882146   3.398480   2.153397
    11  C    1.432123   2.457535   3.729054   4.219252   3.729054
    12  N    2.595346   3.515923   4.843838   5.382469   4.843841
    13  O    4.169200   3.672367   2.403588   1.382811   2.403592
    14  H    4.599206   4.094836   2.843058   1.928832   2.842978
                    6          7          8          9         10
     6  C    0.000000
     7  H    3.410629   0.000000
     8  H    3.882284   2.498111   0.000000
     9  H    2.158954   4.966391   4.282926   0.000000
    10  H    1.084136   4.301846   4.966391   2.498110   0.000000
    11  C    2.457535   2.673674   4.613332   4.613331   2.673674
    12  N    3.515926   3.492311   5.669410   5.669413   3.492317
    13  O    3.672370   4.553246   2.623326   2.623335   4.553250
    14  H    4.094780   4.940240   2.969651   2.969520   4.940158
                   11         12         13         14
    11  C    0.000000
    12  N    1.163225   0.000000
    13  O    5.601263   6.764474   0.000000
    14  H    6.012153   7.165052   0.967133   0.000000
 Stoichiometry    C7H5NO
 Framework group  C1[X(C7H5NO)]
 Deg. of freedom    36
 Full point group                 C1      NOp   1
 Largest Abelian subgroup         C1      NOp   1
 Largest concise Abelian subgroup C1      NOp   1
                         Standard orientation:                         
 ---------------------------------------------------------------------
 Center     Atomic      Atomic             Coordinates (Angstroms)
 Number     Number       Type             X           Y           Z
 ---------------------------------------------------------------------
      1          6           0       -1.081152    0.000001   -0.000825
      2          6           0       -0.377363   -1.215413   -0.007269
      3          6           0        1.013024   -1.212730   -0.014997
      4          6           0        1.705955   -0.000003   -0.012715
      5          6           0        1.013028    1.212726   -0.015003
      6          6           0       -0.377359    1.215413   -0.007270
      7          1           0       -0.925242   -2.150922   -0.008606
      8          1           0        1.572748   -2.141465   -0.031358
      9          1           0        1.572753    2.141460   -0.031369
     10          1           0       -0.925235    2.150924   -0.008609
     11          6           0       -2.513241    0.000004    0.009110
     12          7           0       -3.676413    0.000001    0.020134
     13          8           0        3.087405   -0.000010   -0.074052
     14          1           0        3.443263    0.000088    0.825232
 ---------------------------------------------------------------------
 Rotational constants (GHZ):           5.6096332           0.9836426           0.8390393
 Standard basis: 6-31G(d,p) (6D, 7F)
 There are   160 symmetry adapted cartesian basis functions of A   symmetry.
 There are   160 symmetry adapted basis functions of A   symmetry.
   160 basis functions,   287 primitive gaussians,   160 cartesian basis functions
    31 alpha electrons       31 beta electrons
       nuclear repulsion energy       374.4976874193 Hartrees.
 NAtoms=   14 NActive=   14 NUniq=   14 SFac= 1.00D+00 NAtFMM=   60 NAOKFM=F Big=F
 Integral buffers will be    131072 words long.
 Raffenetti 2 integral format.
 Two-electron integral symmetry is turned on.
 Nuclear repulsion after empirical dispersion term =      374.4722137834 Hartrees.
 One-electron integrals computed using PRISM.
 NBasis=   160 RedAO= T EigKep=  4.25D-04  NBF=   160
 NBsUse=   160 1.00D-06 EigRej= -1.00D+00 NBFU=   160
 Initial guess from the checkpoint file:  "by_product_phenol.chk"
 B after Tr=    -0.000000   -0.000000   -0.000000
         Rot=    1.000000    0.000001   -0.000078    0.000000 Ang=   0.01 deg.
 ExpMin= 1.61D-01 ExpMax= 5.48D+03 ExpMxC= 8.25D+02 IAcc=3 IRadAn=         5 AccDes= 0.00D+00
 Harris functional with IExCor=  402 and IRadAn=       5 diagonalized for initial guess.
 HarFok:  IExCor=  402 AccDes= 0.00D+00 IRadAn=         5 IDoV= 1 UseB2=F ITyADJ=14
 ICtDFT=  3500011 ScaDFX=  1.000000  1.000000  1.000000  1.000000
 FoFCou: FMM=F IPFlag=           0 FMFlag=      100000 FMFlg1=           0
         NFxFlg=           0 DoJE=T BraDBF=F KetDBF=T FulRan=T
         wScrn=  0.000000 ICntrl=       500 IOpCl=  0 I1Cent=   200000004 NGrid=           0
         NMat0=    1 NMatS0=      1 NMatT0=    0 NMatD0=    1 NMtDS0=    0 NMtDT0=    0
 Petite list used in FoFCou.
 Keep R1 ints in memory in canonical form, NReq=85041532.
 Requested convergence on RMS density matrix=1.00D-08 within 128 cycles.
 Requested convergence on MAX density matrix=1.00D-06.
 Requested convergence on             energy=1.00D-06.
 No special actions if energy rises.
 Integral accuracy reduced to 1.0D-05 until final iterations.
 Initial convergence to 1.0D-05 achieved.  Increase integral accuracy.
 SCF Done:  E(RB3LYP) =  -399.739685657     A.U. after   11 cycles
            NFock= 11  Conv=0.22D-08     -V/T= 2.0094
 Calling FoFJK, ICntrl=      2127 FMM=F ISym2X=0 I1Cent= 0 IOpClX= 0 NMat=1 NMatS=1 NMatT=0.
 ***** Axes restored to original set *****
 -------------------------------------------------------------------
 Center     Atomic                   Forces (Hartrees/Bohr)
 Number     Number              X              Y              Z
 -------------------------------------------------------------------
      1        6          -0.000018282    0.000000019    0.000082481
      2        6           0.000349402   -0.000099331   -0.000089085
      3        6          -0.001167240   -0.000394961    0.000025968
      4        6           0.002289972    0.000000132   -0.000353702
      5        6          -0.001168033    0.000395126    0.000026918
      6        6           0.000349789    0.000099597   -0.000089187
      7        1          -0.000081971   -0.000049661    0.000003114
      8        1           0.000110523    0.000127092    0.000048338
      9        1           0.000110485   -0.000127023    0.000048242
     10        1          -0.000082013    0.000049666    0.000003100
     11        6           0.000184560   -0.000000319    0.000049812
     12        7          -0.000030338    0.000000155   -0.000026433
     13        8          -0.000920330   -0.000001275    0.001062757
     14        1           0.000073477    0.000000783   -0.000792323
 -------------------------------------------------------------------
 Cartesian Forces:  Max     0.002289972 RMS     0.000521540

 GradGradGradGradGradGradGradGradGradGradGradGradGradGradGradGradGradGrad
 Berny optimization.
 Using GEDIIS/GDIIS optimizer.
 FormGI is forming the generalized inverse of G from B-inverse, IUseBI=4.
 Internal  Forces:  Max     0.000855293 RMS     0.000237722
 Search for a local minimum.
 Step number   3 out of a maximum of   71
 All quantities printed in internal units (Hartrees-Bohrs-Radians)
 Mixed Optimization -- En-DIIS/RFO-DIIS
 Swapping is turned off.
 Update second derivatives using D2CorX and points    1    2    3
 DE= -1.39D-04 DEPred=-1.27D-04 R= 1.10D+00
 TightC=F SS=  1.41D+00  RLast= 3.76D-02 DXNew= 8.4617D-01 1.1280D-01
 Trust test= 1.10D+00 RLast= 3.76D-02 DXMaxT set to 5.03D-01
 ITU=  1  1  0
     Eigenvalues ---    0.01295   0.01979   0.02025   0.02033   0.02092
     Eigenvalues ---    0.02113   0.02125   0.02130   0.02157   0.02159
     Eigenvalues ---    0.04824   0.04827   0.13988   0.15999   0.16000
     Eigenvalues ---    0.16000   0.16470   0.22000   0.23105   0.24144
     Eigenvalues ---    0.24962   0.25000   0.35168   0.35394   0.35438
     Eigenvalues ---    0.35451   0.38531   0.40695   0.41891   0.42715
     Eigenvalues ---    0.44817   0.45121   0.45974   0.48862   0.56743
     Eigenvalues ---    1.25711
 En-DIIS/RFO-DIIS/Sim-DIIS IScMMF=       -3 using points:     3    2
 RFO step:  Lambda=-1.35860471D-05.
 DidBck=F Rises=F RFO-DIIS coefs:    1.12881   -0.12881
 Iteration  1 RMS(Cart)=  0.00140908 RMS(Int)=  0.00000378
 Iteration  2 RMS(Cart)=  0.00000355 RMS(Int)=  0.00000046
 Iteration  3 RMS(Cart)=  0.00000000 RMS(Int)=  0.00000046
 Variable       Old X    -DE/DX   Delta X   Delta X   Delta X     New X
                                 (Linear)    (Quad)   (Total)
    R1        2.65410   0.00002  -0.00009   0.00006  -0.00002   2.65408
    R2        2.65410   0.00002  -0.00009   0.00006  -0.00002   2.65408
    R3        2.70632  -0.00015  -0.00014  -0.00033  -0.00047   2.70585
    R4        2.62750  -0.00034   0.00026  -0.00100  -0.00074   2.62675
    R5        2.04872   0.00008   0.00013   0.00017   0.00030   2.04902
    R6        2.63944   0.00066   0.00058   0.00118   0.00176   2.64120
    R7        2.04938  -0.00005  -0.00021  -0.00002  -0.00023   2.04915
    R8        2.63944   0.00066   0.00058   0.00118   0.00176   2.64120
    R9        2.61313  -0.00086  -0.00021  -0.00296  -0.00317   2.60996
   R10        2.62750  -0.00034   0.00026  -0.00100  -0.00074   2.62675
   R11        2.04938  -0.00005  -0.00021  -0.00002  -0.00023   2.04915
   R12        2.04872   0.00008   0.00013   0.00017   0.00030   2.04902
   R13        2.19818   0.00003   0.00001   0.00002   0.00003   2.19820
   R14        1.82762  -0.00071   0.00025  -0.00156  -0.00131   1.82631
    A1        2.09180   0.00016  -0.00008   0.00050   0.00043   2.09223
    A2        2.09569  -0.00008   0.00004  -0.00025  -0.00021   2.09548
    A3        2.09569  -0.00008   0.00004  -0.00025  -0.00021   2.09548
    A4        2.09376  -0.00003   0.00019  -0.00038  -0.00018   2.09357
    A5        2.08692  -0.00003  -0.00031   0.00004  -0.00027   2.08665
    A6        2.10251   0.00006   0.00011   0.00034   0.00045   2.10296
    A7        2.09182   0.00020   0.00002   0.00085   0.00088   2.09269
    A8        2.11127   0.00007   0.00060   0.00042   0.00102   2.11229
    A9        2.08006  -0.00026  -0.00062  -0.00127  -0.00189   2.07817
   A10        2.10337  -0.00049  -0.00035  -0.00146  -0.00180   2.10156
   A11        2.08926   0.00024   0.00020   0.00071   0.00090   2.09016
   A12        2.08926   0.00025   0.00020   0.00071   0.00091   2.09017
   A13        2.09182   0.00020   0.00002   0.00086   0.00088   2.09269
   A14        2.08006  -0.00026  -0.00062  -0.00127  -0.00189   2.07817
   A15        2.11127   0.00007   0.00060   0.00042   0.00102   2.11228
   A16        2.09376  -0.00003   0.00019  -0.00038  -0.00019   2.09357
   A17        2.08692  -0.00003  -0.00031   0.00004  -0.00027   2.08665
   A18        2.10251   0.00006   0.00011   0.00034   0.00045   2.10296
   A19        1.90323   0.00064   0.00406   0.00137   0.00543   1.90866
   A20        3.14160  -0.00000   0.00000  -0.00001  -0.00001   3.14159
   A21        3.14475  -0.00005   0.00020  -0.00124  -0.00104   3.14371
    D1        0.00415   0.00003  -0.00053   0.00193   0.00140   0.00555
    D2       -3.13485   0.00000  -0.00023   0.00032   0.00009  -3.13476
    D3       -3.14000   0.00001  -0.00011   0.00085   0.00074  -3.13927
    D4        0.00417  -0.00001   0.00019  -0.00076  -0.00057   0.00361
    D5       -0.00415  -0.00003   0.00053  -0.00193  -0.00140  -0.00555
    D6        3.13485  -0.00000   0.00023  -0.00032  -0.00009   3.13476
    D7        3.14001  -0.00001   0.00011  -0.00085  -0.00074   3.13927
    D8       -0.00418   0.00001  -0.00019   0.00076   0.00057  -0.00361
    D9        0.00298  -0.00002   0.00019  -0.00144  -0.00125   0.00173
   D10       -3.12942  -0.00003   0.00015  -0.00167  -0.00151  -3.13094
   D11       -3.14122   0.00000  -0.00011   0.00018   0.00007  -3.14115
   D12        0.00956  -0.00001  -0.00015  -0.00004  -0.00020   0.00936
   D13       -0.01021   0.00003   0.00015   0.00098   0.00113  -0.00909
   D14       -3.09692  -0.00000  -0.00080   0.00177   0.00097  -3.09595
   D15        3.12236   0.00004   0.00019   0.00121   0.00140   3.12376
   D16        0.03566   0.00001  -0.00075   0.00200   0.00125   0.03690
   D17        0.01022  -0.00003  -0.00015  -0.00098  -0.00113   0.00909
   D18       -3.12236  -0.00004  -0.00019  -0.00120  -0.00140  -3.12376
   D19        3.09692   0.00000   0.00080  -0.00177  -0.00097   3.09595
   D20       -0.03565  -0.00001   0.00075  -0.00199  -0.00124  -0.03690
   D21       -1.59812   0.00000   0.00045  -0.00049  -0.00004  -1.59816
   D22        1.59791  -0.00000  -0.00046   0.00036  -0.00011   1.59780
   D23       -0.00299   0.00002  -0.00019   0.00145   0.00125  -0.00174
   D24        3.14122  -0.00000   0.00011  -0.00018  -0.00007   3.14115
   D25        3.12942   0.00003  -0.00015   0.00167   0.00151   3.13093
   D26       -0.00956   0.00001   0.00015   0.00004   0.00019  -0.00936
         Item               Value     Threshold  Converged?
 Maximum Force            0.000855     0.000450     NO 
 RMS     Force            0.000238     0.000300     YES
 Maximum Displacement     0.007367     0.001800     NO 
 RMS     Displacement     0.001409     0.001200     NO 
 Predicted change in Energy=-6.793461D-06
 GradGradGradGradGradGradGradGradGradGradGradGradGradGradGradGradGradGrad

                          Input orientation:                          
 ---------------------------------------------------------------------
 Center     Atomic      Atomic             Coordinates (Angstroms)
 Number     Number       Type             X           Y           Z
 ---------------------------------------------------------------------
      1          6           0       -1.879565   -0.000003    0.002268
      2          6           0       -1.176013   -1.215556    0.003796
      3          6           0        0.213971   -1.212916    0.013294
      4          6           0        0.908387   -0.000007    0.023405
      5          6           0        0.213975    1.212904    0.013086
      6          6           0       -1.176009    1.215547    0.003590
      7          1           0       -1.724371   -2.150937   -0.003676
      8          1           0        0.774703   -2.141008    0.004722
      9          1           0        0.774708    2.140995    0.004349
     10          1           0       -1.724363    2.150929   -0.004042
     11          6           0       -3.311423   -0.000002   -0.004627
     12          7           0       -4.474658    0.000004   -0.008246
     13          8           0        2.288776   -0.000020   -0.021888
     14          1           0        2.638857    0.000220    0.878918
 ---------------------------------------------------------------------
                    Distance matrix (angstroms):
                    1          2          3          4          5
     1  C    0.000000
     2  C    1.404477   0.000000
     3  C    2.419539   1.390019   0.000000
     4  C    2.788032   2.413020   1.397664   0.000000
     5  C    2.419539   2.798137   2.425821   1.397665   0.000000
     6  C    1.404477   2.431103   2.798138   2.413021   1.390019
     7  H    2.156534   1.084292   2.153448   3.399801   3.882382
     8  H    3.410139   2.159110   1.084366   2.145253   3.400473
     9  H    3.410138   3.882234   3.400474   2.145255   1.084366
    10  H    2.156534   3.410861   3.882383   3.399802   2.153448
    11  C    1.431875   2.457157   3.728255   4.219903   3.728255
    12  N    2.595114   3.515507   4.843024   5.383138   4.843021
    13  O    4.168411   3.671914   2.403575   1.381132   2.403583
    14  H    4.602678   4.098436   2.846239   1.930396   2.846106
                    6          7          8          9         10
     6  C    0.000000
     7  H    3.410861   0.000000
     8  H    3.882235   2.499107   0.000000
     9  H    2.159109   4.966501   4.282003   0.000000
    10  H    1.084292   4.301866   4.966502   2.499105   0.000000
    11  C    2.457157   2.673062   4.613071   4.613070   2.673063
    12  N    3.515504   3.491511   5.669205   5.669201   3.491507
    13  O    3.671919   4.553254   2.622396   2.622410   4.553261
    14  H    4.098344   4.944108   2.970547   2.970326   4.943972
                   11         12         13         14
    11  C    0.000000
    12  N    1.163240   0.000000
    13  O    5.600226   6.763448   0.000000
    14  H    6.015520   7.168622   0.966441   0.000000
 Stoichiometry    C7H5NO
 Framework group  C1[X(C7H5NO)]
 Deg. of freedom    36
 Full point group                 C1      NOp   1
 Largest Abelian subgroup         C1      NOp   1
 Largest concise Abelian subgroup C1      NOp   1
                         Standard orientation:                         
 ---------------------------------------------------------------------
 Center     Atomic      Atomic             Coordinates (Angstroms)
 Number     Number       Type             X           Y           Z
 ---------------------------------------------------------------------
      1          6           0       -1.081053   -0.000001   -0.000620
      2          6           0       -0.377534   -1.215553   -0.007561
      3          6           0        1.012465   -1.212914   -0.014599
      4          6           0        1.706953   -0.000004   -0.012648
      5          6           0        1.012468    1.212907   -0.014606
      6          6           0       -0.377531    1.215550   -0.007565
      7          1           0       -0.925942   -2.150934   -0.008587
      8          1           0        1.573055   -2.141005   -0.029918
      9          1           0        1.573058    2.140998   -0.029935
     10          1           0       -0.925936    2.150932   -0.008596
     11          6           0       -2.512892    0.000001    0.009520
     12          7           0       -3.676087    0.000006    0.019739
     13          8           0        3.086706   -0.000013   -0.074360
     14          1           0        3.447477    0.000152    0.822219
 ---------------------------------------------------------------------
 Rotational constants (GHZ):           5.6090063           0.9837970           0.8391244
 Standard basis: 6-31G(d,p) (6D, 7F)
 There are   160 symmetry adapted cartesian basis functions of A   symmetry.
 There are   160 symmetry adapted basis functions of A   symmetry.
   160 basis functions,   287 primitive gaussians,   160 cartesian basis functions
    31 alpha electrons       31 beta electrons
       nuclear repulsion energy       374.5130519590 Hartrees.
 NAtoms=   14 NActive=   14 NUniq=   14 SFac= 1.00D+00 NAtFMM=   60 NAOKFM=F Big=F
 Integral buffers will be    131072 words long.
 Raffenetti 2 integral format.
 Two-electron integral symmetry is turned on.
 Nuclear repulsion after empirical dispersion term =      374.4875788930 Hartrees.
 One-electron integrals computed using PRISM.
 NBasis=   160 RedAO= T EigKep=  4.25D-04  NBF=   160
 NBsUse=   160 1.00D-06 EigRej= -1.00D+00 NBFU=   160
 Initial guess from the checkpoint file:  "by_product_phenol.chk"
 B after Tr=     0.000000    0.000000   -0.000000
         Rot=    1.000000    0.000001   -0.000015   -0.000000 Ang=   0.00 deg.
 Keep R1 ints in memory in canonical form, NReq=85041532.
 Requested convergence on RMS density matrix=1.00D-08 within 128 cycles.
 Requested convergence on MAX density matrix=1.00D-06.
 Requested convergence on             energy=1.00D-06.
 No special actions if energy rises.
 SCF Done:  E(RB3LYP) =  -399.739693138     A.U. after    9 cycles
            NFock=  9  Conv=0.20D-08     -V/T= 2.0094
 Calling FoFJK, ICntrl=      2127 FMM=F ISym2X=0 I1Cent= 0 IOpClX= 0 NMat=1 NMatS=1 NMatT=0.
 ***** Axes restored to original set *****
 -------------------------------------------------------------------
 Center     Atomic                   Forces (Hartrees/Bohr)
 Number     Number              X              Y              Z
 -------------------------------------------------------------------
      1        6          -0.000015489   -0.000000393   -0.000028453
      2        6           0.000122299   -0.000103998    0.000046947
      3        6          -0.000276495    0.000137774   -0.000012526
      4        6           0.000421154    0.000000785   -0.000025713
      5        6          -0.000277278   -0.000138011   -0.000011330
      6        6           0.000122489    0.000104347    0.000047258
      7        1           0.000006575    0.000026405   -0.000001420
      8        1           0.000044603   -0.000048124   -0.000001014
      9        1           0.000044509    0.000048309   -0.000001138
     10        1           0.000006527   -0.000026406   -0.000001464
     11        6          -0.000010272    0.000000383   -0.000037980
     12        7          -0.000019401   -0.000000149    0.000015636
     13        8          -0.000122551   -0.000002484    0.000117596
     14        1          -0.000046669    0.000001561   -0.000106399
 -------------------------------------------------------------------
 Cartesian Forces:  Max     0.000421154 RMS     0.000107067

 GradGradGradGradGradGradGradGradGradGradGradGradGradGradGradGradGradGrad
 Berny optimization.
 Using GEDIIS/GDIIS optimizer.
 FormGI is forming the generalized inverse of G from B-inverse, IUseBI=4.
 Internal  Forces:  Max     0.000169564 RMS     0.000046390
 Search for a local minimum.
 Step number   4 out of a maximum of   71
 All quantities printed in internal units (Hartrees-Bohrs-Radians)
 Mixed Optimization -- En-DIIS/RFO-DIIS
 Swapping is turned off.
 Update second derivatives using D2CorX and points    1    2    3    4
 DE= -7.48D-06 DEPred=-6.79D-06 R= 1.10D+00
 TightC=F SS=  1.41D+00  RLast= 9.57D-03 DXNew= 8.4617D-01 2.8707D-02
 Trust test= 1.10D+00 RLast= 9.57D-03 DXMaxT set to 5.03D-01
 ITU=  1  1  1  0
     Eigenvalues ---    0.01295   0.01966   0.02023   0.02027   0.02092
     Eigenvalues ---    0.02116   0.02125   0.02157   0.02157   0.02172
     Eigenvalues ---    0.04824   0.04848   0.13733   0.15999   0.16000
     Eigenvalues ---    0.16000   0.16546   0.22000   0.22394   0.23707
     Eigenvalues ---    0.24962   0.25000   0.35394   0.35424   0.35451
     Eigenvalues ---    0.35602   0.37199   0.40712   0.41890   0.42784
     Eigenvalues ---    0.44817   0.45066   0.45975   0.48635   0.56120
     Eigenvalues ---    1.25707
 En-DIIS/RFO-DIIS/Sim-DIIS IScMMF=       -3 using points:     4    3    2
 RFO step:  Lambda=-5.75549750D-07.
 DidBck=F Rises=F RFO-DIIS coefs:    0.96132    0.07760   -0.03892
 Iteration  1 RMS(Cart)=  0.00028206 RMS(Int)=  0.00000017
 Iteration  2 RMS(Cart)=  0.00000010 RMS(Int)=  0.00000016
 Variable       Old X    -DE/DX   Delta X   Delta X   Delta X     New X
                                 (Linear)    (Quad)   (Total)
    R1        2.65408   0.00003  -0.00003   0.00009   0.00007   2.65414
    R2        2.65408   0.00003  -0.00003   0.00009   0.00007   2.65414
    R3        2.70585   0.00003  -0.00003   0.00007   0.00005   2.70590
    R4        2.62675  -0.00011   0.00011  -0.00034  -0.00024   2.62652
    R5        2.04902  -0.00003   0.00003  -0.00008  -0.00006   2.04896
    R6        2.64120   0.00003   0.00011   0.00004   0.00014   2.64135
    R7        2.04915   0.00006  -0.00005   0.00021   0.00016   2.04932
    R8        2.64120   0.00003   0.00011   0.00004   0.00015   2.64135
    R9        2.60996  -0.00017   0.00006  -0.00066  -0.00060   2.60936
   R10        2.62675  -0.00011   0.00011  -0.00034  -0.00024   2.62652
   R11        2.04915   0.00006  -0.00005   0.00022   0.00016   2.04932
   R12        2.04902  -0.00003   0.00003  -0.00008  -0.00006   2.04896
   R13        2.19820   0.00002   0.00000   0.00002   0.00002   2.19822
   R14        1.82631  -0.00012   0.00013  -0.00036  -0.00023   1.82608
    A1        2.09223  -0.00002  -0.00004  -0.00004  -0.00008   2.09215
    A2        2.09548   0.00001   0.00002   0.00002   0.00004   2.09552
    A3        2.09548   0.00001   0.00002   0.00002   0.00004   2.09552
    A4        2.09357  -0.00001   0.00007  -0.00012  -0.00005   2.09352
    A5        2.08665  -0.00000  -0.00008   0.00004  -0.00004   2.08661
    A6        2.10296   0.00001   0.00002   0.00008   0.00010   2.10306
    A7        2.09269   0.00009  -0.00003   0.00041   0.00038   2.09307
    A8        2.11229  -0.00003   0.00014  -0.00016  -0.00001   2.11227
    A9        2.07817  -0.00006  -0.00011  -0.00025  -0.00037   2.07780
   A10        2.10156  -0.00013  -0.00003  -0.00053  -0.00057   2.10100
   A11        2.09016   0.00006   0.00002   0.00027   0.00029   2.09045
   A12        2.09017   0.00006   0.00002   0.00027   0.00030   2.09047
   A13        2.09269   0.00009  -0.00003   0.00041   0.00038   2.09307
   A14        2.07817  -0.00006  -0.00011  -0.00025  -0.00037   2.07781
   A15        2.11228  -0.00003   0.00014  -0.00016  -0.00002   2.11227
   A16        2.09357  -0.00001   0.00007  -0.00012  -0.00005   2.09352
   A17        2.08665  -0.00000  -0.00008   0.00004  -0.00004   2.08661
   A18        2.10296   0.00001   0.00002   0.00008   0.00010   2.10306
   A19        1.90866  -0.00001   0.00102  -0.00070   0.00032   1.90898
   A20        3.14159   0.00000   0.00000   0.00001   0.00001   3.14160
   A21        3.14371   0.00003   0.00010   0.00043   0.00053   3.14424
    D1        0.00555  -0.00002  -0.00021  -0.00065  -0.00087   0.00468
    D2       -3.13476  -0.00001  -0.00007  -0.00027  -0.00034  -3.13511
    D3       -3.13927  -0.00001  -0.00006  -0.00048  -0.00055  -3.13981
    D4        0.00361   0.00000   0.00008  -0.00010  -0.00002   0.00359
    D5       -0.00555   0.00002   0.00021   0.00066   0.00087  -0.00467
    D6        3.13476   0.00001   0.00007   0.00027   0.00034   3.13510
    D7        3.13927   0.00001   0.00006   0.00049   0.00055   3.13982
    D8       -0.00361  -0.00000  -0.00008   0.00010   0.00002  -0.00359
    D9        0.00173   0.00001   0.00011   0.00021   0.00032   0.00206
   D10       -3.13094   0.00001   0.00011   0.00018   0.00029  -3.13065
   D11       -3.14115  -0.00000  -0.00004  -0.00017  -0.00021  -3.14136
   D12        0.00936  -0.00001  -0.00004  -0.00021  -0.00025   0.00912
   D13       -0.00909   0.00000   0.00000   0.00023   0.00023  -0.00886
   D14       -3.09595  -0.00000  -0.00028   0.00012  -0.00016  -3.09611
   D15        3.12376   0.00001   0.00000   0.00026   0.00027   3.12403
   D16        0.03690  -0.00000  -0.00028   0.00015  -0.00012   0.03678
   D17        0.00909  -0.00000  -0.00000  -0.00023  -0.00023   0.00886
   D18       -3.12376  -0.00001  -0.00000  -0.00026  -0.00026  -3.12402
   D19        3.09595   0.00000   0.00028  -0.00012   0.00016   3.09611
   D20       -0.03690   0.00000   0.00028  -0.00015   0.00013  -0.03677
   D21       -1.59816   0.00000   0.00014  -0.00007   0.00007  -1.59809
   D22        1.59780  -0.00000  -0.00014  -0.00015  -0.00029   1.59751
   D23       -0.00174  -0.00001  -0.00011  -0.00022  -0.00033  -0.00207
   D24        3.14115   0.00000   0.00004   0.00017   0.00021   3.14136
   D25        3.13093  -0.00001  -0.00011  -0.00019  -0.00029   3.13064
   D26       -0.00936   0.00001   0.00004   0.00021   0.00025  -0.00912
         Item               Value     Threshold  Converged?
 Maximum Force            0.000170     0.000450     YES
 RMS     Force            0.000046     0.000300     YES
 Maximum Displacement     0.000979     0.001800     YES
 RMS     Displacement     0.000282     0.001200     YES
 Predicted change in Energy=-2.850788D-07
 Optimization completed.
    -- Stationary point found.
                           ----------------------------
                           !   Optimized Parameters   !
                           ! (Angstroms and Degrees)  !
 --------------------------                            --------------------------
 ! Name  Definition              Value          Derivative Info.                !
 --------------------------------------------------------------------------------
 ! R1    R(1,2)                  1.4045         -DE/DX =    0.0                 !
 ! R2    R(1,6)                  1.4045         -DE/DX =    0.0                 !
 ! R3    R(1,11)                 1.4319         -DE/DX =    0.0                 !
 ! R4    R(2,3)                  1.39           -DE/DX =   -0.0001              !
 ! R5    R(2,7)                  1.0843         -DE/DX =    0.0                 !
 ! R6    R(3,4)                  1.3977         -DE/DX =    0.0                 !
 ! R7    R(3,8)                  1.0844         -DE/DX =    0.0001              !
 ! R8    R(4,5)                  1.3977         -DE/DX =    0.0                 !
 ! R9    R(4,13)                 1.3811         -DE/DX =   -0.0002              !
 ! R10   R(5,6)                  1.39           -DE/DX =   -0.0001              !
 ! R11   R(5,9)                  1.0844         -DE/DX =    0.0001              !
[...]
 ! A21   L(1,11,12,10,-2)      180.1213         -DE/DX =    0.0                 !
 ! D1    D(6,1,2,3)              0.3179         -DE/DX =    0.0                 !
 ! D2    D(6,1,2,7)           -179.6088         -DE/DX =    0.0                 !
 ! D3    D(11,1,2,3)          -179.8667         -DE/DX =    0.0                 !
 ! D4    D(11,1,2,7)             0.2066         -DE/DX =    0.0                 !
 ! D5    D(2,1,6,5)             -0.3177         -DE/DX =    0.0                 !
 ! D6    D(2,1,6,10)           179.6087         -DE/DX =    0.0                 !
 ! D7    D(11,1,6,5)           179.8669         -DE/DX =    0.0                 !
 ! D8    D(11,1,6,10)           -0.2067         -DE/DX =    0.0                 !
 ! D9    D(1,2,3,4)              0.0993         -DE/DX =    0.0                 !
 ! D10   D(1,2,3,8)           -179.3896         -DE/DX =    0.0                 !
 ! D11   D(7,2,3,4)           -179.9747         -DE/DX =    0.0                 !
 ! D12   D(7,2,3,8)              0.5364         -DE/DX =    0.0                 !
 ! D13   D(2,3,4,5)             -0.5206         -DE/DX =    0.0                 !
 ! D14   D(2,3,4,13)          -177.3846         -DE/DX =    0.0                 !
 ! D15   D(8,3,4,5)            178.9783         -DE/DX =    0.0                 !
 ! D16   D(8,3,4,13)             2.1143         -DE/DX =    0.0                 !
 ! D17   D(3,4,5,6)              0.5207         -DE/DX =    0.0                 !
 ! D18   D(3,4,5,9)           -178.9781         -DE/DX =    0.0                 !
 ! D19   D(13,4,5,6)           177.3847         -DE/DX =    0.0                 !
 ! D20   D(13,4,5,9)            -2.114          -DE/DX =    0.0                 !
 ! D21   D(3,4,13,14)          -91.568          -DE/DX =    0.0                 !
 ! D22   D(5,4,13,14)           91.5473         -DE/DX =    0.0                 !
 ! D23   D(4,5,6,1)             -0.0997         -DE/DX =    0.0                 !
 ! D24   D(4,5,6,10)           179.9747         -DE/DX =    0.0                 !
 ! D25   D(9,5,6,1)            179.3891         -DE/DX =    0.0                 !
 ! D26   D(9,5,6,10)            -0.5365         -DE/DX =    0.0                 !
 --------------------------------------------------------------------------------
 GradGradGradGradGradGradGradGradGradGradGradGradGradGradGradGradGradGrad


 ----------------------------------------------------------------------

 Electric dipole moment (input orientation):
 (Debye = 10**-18 statcoulomb cm , SI units = C m)
                  (au)            (Debye)         (10**-30 SI)
   Tot        0.182083D+01      0.462810D+01      0.154377D+02
   x          0.171556D+01      0.436051D+01      0.145451D+02
   y          0.146817D-03      0.373172D-03      0.124477D-02
   z          0.610167D+00      0.155089D+01      0.517321D+01

 Dipole polarizability, Alpha (input orientation).
 (esu units = cm**3 , SI units = C**2 m**2 J**-1)
 Alpha(0;0):
               (au)            (10**-24 esu)      (10**-40 SI)
   iso        0.762966D+02      0.113060D+02      0.125796D+02
   aniso      0.792488D+02      0.117435D+02      0.130664D+02
   xx         0.122253D+03      0.181160D+02      0.201567D+02
   yx         0.544437D-03      0.806772D-04      0.897655D-04
   yy         0.757522D+02      0.112253D+02      0.124899D+02
   zx         0.249653D+01      0.369947D+00      0.411622D+00
   zy        -0.350359D-02     -0.519179D-03     -0.577664D-03
   zz         0.308851D+02      0.457670D+01      0.509227D+01

 ----------------------------------------------------------------------

 Dipole orientation:
     6         -1.19427750          0.00019612         -3.34506318
     6         -0.75134197         -2.29694120         -2.09163169
     6          0.11195802         -2.29210451          0.38920101
     6          0.53356669         -0.00011357          1.63217206
     6          0.11207090          2.29203229          0.38944583
     6         -0.75123491          2.29717760         -2.09138414
     1         -1.08518697         -4.06449553         -3.07283708
     1          0.48240582         -4.04600349          1.38199515
     1          0.48261208          4.04580953          1.38242105
     1         -1.08499307          4.06485358         -3.07239985
     6         -2.08873166          0.00035351         -5.89880313
     7         -2.81890980          0.00049047         -7.97219285
     8          1.48834607         -0.00028026          4.06122511
     1          0.10618098         -0.00000224          5.25496926

 Electric dipole moment (dipole orientation):
 (Debye = 10**-18 statcoulomb cm , SI units = C m)
                  (au)            (Debye)         (10**-30 SI)
   Tot        0.182083D+01      0.462810D+01      0.154377D+02
   x          0.000000D+00      0.000000D+00      0.000000D+00
   y          0.000000D+00      0.000000D+00      0.000000D+00
   z          0.182083D+01      0.462810D+01      0.154377D+02

 Dipole polarizability, Alpha (dipole orientation).
 (esu units = cm**3 , SI units = C**2 m**2 J**-1)
 Alpha(0;0):
               (au)            (10**-24 esu)      (10**-40 SI)
   iso        0.762966D+02      0.113060D+02      0.125796D+02
   aniso      0.792488D+02      0.117435D+02      0.130664D+02
   xx         0.395687D+02      0.586347D+01      0.652399D+01
   yx        -0.745367D-03     -0.110452D-03     -0.122894D-03
   yy         0.757522D+02      0.112253D+02      0.124899D+02
   zx         0.269114D+02      0.398786D+01      0.443709D+01
   zy        -0.217903D-02     -0.322899D-03     -0.359274D-03
   zz         0.113569D+03      0.168292D+02      0.187250D+02

 ----------------------------------------------------------------------
 Unable to Open any file for archive entry.
 1\1\GINC-NODE664\Freq\RB3LYP\6-31G(d,p)\C7H5N1O1\XIAOYUY\04-May-2023\0
 \\#N Geom=AllCheck Guess=TCheck SCRF=Check GenChk RB3LYP/6-31G(d,p) Fr
 eq\\Title Card Required\\0,1\C,-1.8795647547,-0.0000029868,0.002267515
 8\C,-1.1760132344,-1.2155555547,0.0037959837\C,0.2139706248,-1.2129162
 326,0.0132942653\C,0.9083867209,-0.0000065214,0.0234051465\C,0.2139746
 724,1.2129044898,0.0130857981\C,-1.176009156,1.2155474137,0.0035904782
 \H,-1.7243707068,-2.1509368331,-0.003675944\H,0.7747027983,-2.14100838
 95,0.0047220123\H,0.7747080668,2.1409946442,0.0043494323\H,-1.72436311
 54,2.1509294438,-0.0040419563\C,-3.3114234653,-0.0000017299,-0.0046266
 68\N,-4.4746578111,0.000004262,-0.0082457499\O,2.2887763255,-0.0000198
 373,-0.0218882715\H,2.6388565449,0.0002198418,0.8789182875\\Version=ES
 64L-G16RevC.01\State=1-A\HF=-399.7396931\RMSD=6.417e-10\RMSF=1.071e-04
 \ZeroPoint=0.1024676\Thermal=0.1093959\ETot=-399.6302973\HTot=-399.629
 3531\GTot=-399.6687883\Dipole=1.715556,0.0001468,0.6101672\DipoleDeriv
 =-0.1254443,-0.0000015,-0.0055573,0.0000045,0.0161916,0.0000049,-0.000
 8219,0.0000033,0.0410273,0.1269625,0.0372147,0.0019285,-0.0626001,0.08
 66495,-0.0005473,-0.0043347,0.0019016,-0.0779196,-0.2616228,-0.1043063
 ,-0.0173365,-0.2742555,-0.0082544,-0.0008292,-0.026638,0.0065608,-0.12
 48577,1.3679767,0.0000212,0.0827995,0.000019,0.2394373,-0.0000254,0.03
 64562,-0.0000228,0.0802747,-0.2616227,0.104296,-0.0173539,0.2742502,-0
 .0082554,0.0008071,-0.0266449,-0.0065799,-0.1248631,0.1269518,-0.03720
 9,0.0019293,0.0625965,0.0866492,0.0005177,-0.00434,-0.001929,-0.077918
 7,0.0397719,-0.0547406,-0.0015699,-0.0503815,-0.0063595,-0.0006893,0.0
 018714,-0.0009797,0.1180414,0.0238138,0.0606396,0.0000526,0.0613428,-0
 .0076782,0.0023109,-0.0011943,0.0022976,0.1210577,0.0238059,-0.0606445
 ,0.0000629,-0.0613468,-0.0076835,-0.0022882,-0.0011847,-0.0022749,0.12
 10572,0.0397718,0.0547397,-0.0015792,0.0503819,-0.0063604,0.0007105,0.
 0018574,0.0009979,0.1180411,0.4977872,0.0000018,0.0051623,0.0000012,0.
 0214471,0.0000112,0.0019917,0.0000102,0.1505909,-0.4838673,-0.0000021,
 -0.0035857,-0.0000002,-0.2875903,-0.000004,0.0003493,-0.0000038,-0.333
 9968,-1.4982354,-0.0000195,-0.0801333,-0.0000612,-0.4355169,0.0000681,
 0.0057371,0.0000609,-0.1938196,0.3839508,0.0000104,0.0351807,0.0000492
 ,0.3173237,-0.000047,0.0168953,-0.0000422,0.1832851\Polar=122.2525143,
 0.0005444,75.7522042,2.4965294,-0.0035036,30.8850995\Quadrupole=-9.159
 0366,7.1432867,2.0157499,0.0011633,4.2680674,-0.0002168\PG=C01 [X(C7H5
 N1O1)]\NImag=1\\0.68075015,0.00000030,0.65181779,0.00249308,-0.0000436
 9,0.13498770,-0.15720487,0.05473328,-0.00050064,0.70708007,0.10650009,
 -0.27528183,0.00016907,0.04294017,0.71557114,-0.00042705,-0.00065559,-
 0.06105212,0.00386341,0.00227111,0.13208898,-0.03216347,0.07171953,-0.
 00007493,-0.35601079,-0.03237096,-0.00212380,0.71664019,0.02570805,0.0
 3186463,0.00027095,0.03263601,-0.13051447,0.00039461,-0.04181845,0.723
 12945,-0.00024753,0.00067895,0.00615996,-0.00162504,-0.00049638,-0.057
 25905,0.00270793,0.00426235,0.12402087,0.00360307,0.00000011,-0.000159
 13,-0.02931719,-0.02708696,-0.00111130,-0.15563213,-0.11199151,-0.0024
 3674,0.67484629,-0.00000024,-0.07171768,0.00000567,-0.08137532,0.03958
 309,-0.00070000,-0.03807452,-0.28826227,-0.00244199,0.00000523,0.67970
 957,-0.00036847,0.00000611,-0.00486249,0.00014849,0.00000221,0.0004249
 7,-0.00126347,-0.00264760,-0.06519429,0.01958982,-0.00003487,0.1793179
 9,-0.03216397,-0.07171929,-0.00006245,-0.04770521,0.02916476,-0.000346
 96,0.06179417,0.02182001,-0.00021077,-0.15563137,0.03807283,-0.0012694
 3,0.71663961,-0.02570768,0.03186464,-0.00027538,0.02609361,-0.01806890
 ,0.00014484,-0.02182053,-0.05224924,0.00036377,0.11198934,-0.28826064,
 0.00268368,0.04181884,0.72312571,-0.00024221,-0.00068290,0.00616023,-0
 .00016882,-0.00002635,-0.00353075,-0.00020682,-0.00035248,0.00833347,-
 0.00245668,0.00247887,-0.06519521,0.00269887,-0.00436627,0.12402191,-0
 .15720524,-0.05473390,-0.00049157,0.05961013,-0.02243413,0.00044118,-0
 .04770552,-0.02609364,-0.00016405,-0.02931727,0.08137581,0.00013397,-0
 .35601084,-0.03263541,-0.00161994,0.70707936,-0.10650070,-0.27528119,-
 0.00013287,0.02243383,-0.05801119,0.00025176,-0.02916477,-0.01806873,0
 .00002840,0.02708695,0.03958300,-0.00000945,0.03237151,-0.13051418,0.0
 0050950,-0.04293945,0.71557077,-0.00040910,0.00069135,-0.06105213,0.00
 043700,-0.00024008,0.00919876,-0.00034161,-0.00014216,-0.00353066,-0.0
 0111624,0.00069325,0.00042503,-0.00212978,-0.00038198,-0.05725900,0.00
 387095,-0.00237044,0.13208955,0.01100963,0.01569895,0.00011625,-0.1324
 5155,-0.12553201,-0.00115589,-0.01041563,-0.02852371,-0.00019345,-0.00
 409242,0.00233193,-0.00004241,-0.00064810,0.00062330,-0.00001845,-0.00
 154794,0.00294383,-0.00003231,0.13662956,-0.01528348,-0.01817665,-0.00
 019829,-0.12363691,-0.27272137,-0.00176096,0.00231297,0.00483889,0.000
 04212,0.00106344,0.00139488,-0.00009265,0.00067240,0.00046716,0.000026
 95,0.00420166,-0.00295098,-0.00000954,0.13261293,0.28665072,-0.0000040
 4,0.00014737,0.00302575,-0.00104700,-0.00188570,-0.03679226,-0.0003059
 7,-0.00041227,0.00363095,0.00008712,0.00021390,0.00812297,0.00015067,-
 0.00006686,-0.00068087,-0.00006458,-0.00006542,0.00552591,0.00130866,0
 .00192335,0.02554161,-0.00481244,-0.00155459,-0.00009496,-0.01060039,0
 .02809490,0.00014055,-0.13242811,0.12617200,0.00093312,0.01046510,-0.0
 1420010,-0.00010722,-0.00163200,-0.00299269,-0.00002191,-0.00066804,-0
 .00072526,0.00003265,0.00107007,-0.00023640,-0.00000112,0.13681655,-0.
 00115101,0.00179297,-0.00018043,-0.00222453,0.00506631,0.00000802,0.12
 477808,-0.27026550,-0.00222679,0.01884105,-0.01911298,-0.00007637,-0.0
 0410241,-0.00329423,-0.00014486,-0.00115151,0.00014429,0.00002728,0.00
 028168,0.00071044,0.00009146,-0.13604113,0.28295427,-0.00015040,0.0000
 1206,0.00735705,-0.00016717,0.00032343,0.00193897,0.00119230,-0.002836
 62,-0.03475412,0.00074493,0.00014351,0.00460100,-0.00009006,0.00001936
 ,0.00540687,-0.00009479,-0.00005405,-0.00065536,0.00003085,0.00001562,
 -0.00424897,-0.00077630,0.00271318,0.02510858,-0.00481247,0.00155460,-
 0.00009522,-0.00066805,0.00072526,0.00003254,-0.00163193,0.00299271,-0
 .00002246,0.01046487,0.01419998,-0.00010959,-0.13242819,-0.12617133,0.
 00095541,-0.01060054,-0.02809505,0.00014549,0.00008439,-0.00009755,0.0
 0000013,0.00061944,0.00083732,0.00000834,0.13681691,0.00115097,0.00179
 301,0.00018144,0.00115149,0.00014429,-0.00002740,0.00410244,-0.0032942
 3,0.00014632,-0.01884126,-0.01911293,0.00008045,-0.12477765,-0.2702634
 9,0.00226878,0.00222449,0.00506616,-0.00000869,-0.00009967,0.00000168,
 -0.00000715,-0.00083734,-0.00103356,-0.00002764,0.13604065,0.28295235,
 -0.00015059,-0.00001102,0.00735703,-0.00009491,0.00005389,-0.00065536,
 -0.00009066,-0.00001797,0.00540685,0.00074732,-0.00013920,0.00460085,0
 .00121503,0.00287814,-0.03475460,-0.00016760,-0.00032388,0.00193898,0.
 00000972,-0.00000120,-0.00087408,0.00000848,0.00002781,0.00019944,-0.0
 0080029,-0.00275910,0.02510919,0.01100963,-0.01569900,0.00011887,-0.00
 154797,-0.00294384,-0.00003180,-0.00064810,-0.00062330,-0.00001831,-0.
 00409247,-0.00233200,-0.00004195,-0.01041556,0.02852371,-0.00019857,-0
 .13245059,0.12553129,-0.00117742,0.00062203,-0.00081956,-0.00001292,0.
 00008439,0.00009967,0.00000971,0.00107006,-0.00028167,0.00003085,0.136
 62853,0.01528339,-0.01817664,0.00020190,-0.00420168,-0.00295094,0.0000
 1103,-0.00067237,0.00046716,-0.00002715,-0.00106340,0.00139487,0.00009
 379,-0.00231298,0.00483883,-0.00004237,0.12363620,-0.27272165,0.001801
 44,0.00081956,-0.00093979,-0.00000809,0.00009755,0.00000168,0.00000105
 ,0.00023640,0.00071043,-0.00001647,-0.13261216,0.28665103,-0.00000680,
 -0.00014397,0.00302571,-0.00006387,0.00006693,0.00552588,0.00015073,0.
 00006657,-0.00068086,0.00008744,-0.00021282,0.00812300,-0.00030551,0.0
 0041223,0.00363081,-0.00106814,0.00192625,-0.03679279,-0.00001306,0.00
 000835,0.00060345,0.00000011,0.00000701,-0.00087407,-0.00000119,-0.000
 09233,-0.00424895,0.00133151,-0.00196811,0.02554225,-0.28772811,-0.000
 00002,-0.00117168,-0.04006756,0.01677242,-0.00014004,0.00598508,0.0059
 4351,0.00013684,-0.00413121,0.00000002,0.00011635,0.00598511,-0.005943
 55,0.00013745,-0.04006776,-0.01677223,-0.00013719,0.00138900,-0.001506
 88,-0.00000140,-0.00050345,-0.00009279,-0.00001974,-0.00050345,0.00009
 279,-0.00001977,0.00138901,0.00150689,-0.00000158,1.57979368,0.0000002
 5,-0.08404229,0.00000233,0.03159856,0.00641868,0.00024855,0.00326331,-
 0.00489860,-0.00005217,0.,-0.00321517,0.00000025,-0.00326334,-0.004898
 51,0.00005423,-0.03159834,0.00641879,-0.00024961,0.00061353,0.00037466
 ,0.00001183,0.00146377,0.00027652,0.00003758,-0.00146378,0.00027651,-0
 .00003750,-0.00061354,0.00037465,-0.00001254,-0.00000622,0.11721881,-0
 .00102154,0.00000246,-0.05628706,-0.00012073,0.00002646,0.00033891,-0.
 00005802,-0.00005666,0.00723533,0.00008795,0.00000025,-0.00062390,-0.0
 0005714,0.00005869,0.00723525,-0.00011563,-0.00002771,0.00033894,0.000
 03364,0.00001347,-0.00384774,0.00001546,-0.00001400,0.00071454,0.00001
 572,0.00001411,0.00071455,0.00003380,-0.00001419,-0.00384772,0.0051433
 6,-0.00000256,0.08684108,-0.02612635,0.00000033,-0.00009677,0.00560123
 ,-0.00879710,-0.00003414,-0.00263493,-0.00081174,-0.00006743,0.0027999
 1,0.,-0.00007325,-0.00263494,0.00081177,-0.00006735,0.00560135,0.00879
 703,-0.00003563,-0.00007368,0.00061225,0.00000739,-0.00027086,-0.00005
 049,-0.00000572,-0.00027086,0.00005048,-0.00000573,-0.00007368,-0.0006
 1225,0.00000745,-1.22442005,0.00000579,-0.00372624,1.24452151,0.000000
 06,0.02018851,-0.00000033,-0.00236254,-0.00226569,-0.00003373,-0.00055
 933,0.00093742,0.00000900,-0.00000001,0.00074267,-0.00000006,0.0005593
 6,0.00093740,-0.00000937,0.00236246,-0.00226576,0.00003440,-0.00023624
 ,0.00022371,-0.00000149,-0.00027012,-0.00009904,-0.00000657,0.00027013
 ,-0.00009904,0.00000655,0.00023625,0.00022373,0.00000153,0.00000606,-0
 .03490389,-0.00000023,-0.00000608,0.01645917,-0.00021919,-0.00000035,0
 .01631937,-0.00000428,-0.00002189,0.00158121,0.00000570,0.00002402,-0.
 00117469,-0.00000923,-0.00000006,0.00011660,0.00000553,-0.00002437,-0.
 00117467,-0.00000462,0.00002259,0.00158119,-0.00000217,-0.00000072,0.0
 0041903,-0.00000395,0.00000596,-0.00022552,-0.00000400,-0.00000599,-0.
 00022552,-0.00000222,0.00000075,0.00041902,-0.00369551,-0.00000022,-0.
 03759944,0.00386671,0.00000027,0.01974953,-0.00502160,-0.00000041,0.00
 027106,0.00422269,-0.00488470,-0.00099269,-0.04502440,-0.00709148,0.00
 081094,-0.28970543,0.00000847,0.02259497,-0.04502644,0.00709144,0.0008
 1114,0.00422358,0.00488534,-0.00099277,-0.00151425,0.00007788,-0.00008
 642,0.00177800,0.00023343,0.00036672,0.00177813,-0.00023319,0.00036707
 ,-0.00151433,-0.00007790,-0.00008656,0.00347830,0.,0.00006615,-0.00239
 660,0.00000001,0.00001138,0.45987081,-0.00000088,0.00290021,-0.0000004
 2,0.00183552,-0.00596673,-0.00145405,-0.03854261,0.00569354,-0.0022263
 5,-0.00000226,-0.06863835,-0.00000736,0.03854178,0.00569495,0.00222606
 ,-0.00183427,-0.00596707,0.00145630,-0.00141628,0.00013441,0.00024944,
 0.00140720,0.00350738,0.00023277,-0.00140728,0.00350770,-0.00023358,0.
 00141644,0.00013438,-0.00024940,0.00000044,0.00065909,-0.00000002,-0.0
 0000024,-0.00006858,0.,0.00003597,0.04783649,0.00029321,-0.00000109,-0
 .00107006,-0.00042715,-0.00068650,0.00777069,-0.00164469,0.00110286,0.
 00752225,-0.02324181,-0.00000836,-0.07337868,-0.00165113,-0.00110125,0
 .00752132,-0.00042514,0.00068896,0.00776980,-0.00018925,-0.00000413,-0
 .00049589,0.00006831,-0.00026963,-0.00423231,0.00006864,0.00026826,-0.
 00423197,-0.00018934,0.00000404,-0.00049581,-0.00002595,-0.00000018,-0
 .00105834,0.00002678,0.00000003,0.00020568,0.15710021,0.00013187,0.511
 31435,0.00086603,0.00000011,-0.00025192,-0.00094055,-0.00014791,0.0018
 8599,-0.00012444,0.00168154,0.00039695,-0.03025975,-0.00001209,-0.0393
 0781,-0.00012228,-0.00168082,0.00039788,-0.00094067,0.00014766,0.00188
 597,-0.00006110,0.00002726,-0.00003053,0.00008173,-0.00025735,-0.00104
 866,0.00008167,0.00025746,-0.00104892,-0.00006095,-0.00002725,-0.00003
 053,-0.00059859,0.,-0.00029677,0.00037795,0.,0.00005585,-0.08514846,-0
 .00003354,-0.12976269,0.11684942,0.00000088,0.00045453,0.00000003,0.00
 037851,-0.00100237,0.00130182,-0.00315278,0.00062194,0.00193992,-0.000
 00071,-0.00408805,0.00000188,0.00315418,0.00062052,-0.00193980,-0.0003
 7998,-0.00100226,-0.00130152,-0.00011780,-0.00000775,-0.00019035,-0.00
 037779,-0.00064854,-0.00057367,0.00037795,-0.00064887,0.00057352,0.000
 11769,-0.00000775,0.00019032,-0.00000046,-0.00005923,-0.00000008,0.000
 00024,-0.00001061,0.00000002,-0.00004486,0.01057258,-0.00012490,0.0000
 4493,-0.00479414,0.00046063,0.00000032,-0.00006895,-0.00022929,0.00044
 377,0.00042116,0.00205330,0.00034441,0.00028399,0.00918657,0.00000185,
 0.00352215,0.00205312,-0.00034461,0.00028524,-0.00023003,-0.00044363,0
 .00042180,0.00014785,0.00003764,0.00007013,-0.00019322,0.00003138,-0.0
 0033609,-0.00019350,-0.00003106,-0.00033641,0.00014780,-0.00003761,0.0
 0007008,-0.00032115,0.00000002,-0.00015441,0.00020392,0.,0.00000822,-0
 .18024118,-0.00012525,-0.45714101,0.16715518,0.00012280,0.45295411\\0.
 00001548,0.00000039,0.00002845,-0.00012229,0.00010398,-0.00004695,0.00
 027649,-0.00013779,0.00001253,-0.00042114,-0.00000078,0.00002571,0.000
 27728,0.00013802,0.00001133,-0.00012248,-0.00010433,-0.00004726,-0.000
 00658,-0.00002641,0.00000142,-0.00004460,0.00004812,0.00000101,-0.0000
 4451,-0.00004831,0.00000114,-0.00000653,0.00002641,0.00000146,0.000010
 24,-0.00000038,0.00003798,0.00001942,0.00000015,-0.00001563,0.00012256
 ,0.00000248,-0.00011759,0.00004667,-0.00000156,0.00010640\\\@
 The archive entry for this job was punched.


 THE THINKER DIES, BUT HIS THOUGHTS ARE BEYOND THE 
 REACH OF DESTRUCTION.  MEN ARE MORTAL; BUT IDEAS 
 ARE IMMORTAL.
                              -- WALTER LIPPMANN
 Job cpu time:       0 days  0 hours  3 minutes 37.9 seconds.
 Elapsed time:       0 days  0 hours  3 minutes 39.3 seconds.
 File lengths (MBytes):  RWF=     46 Int=      0 D2E=      0 Chk=      3 Scr=      1
 Normal termination of Gaussian 16 at Thu May  4 16:46:31 2023.
